Title
42775
    1SAPS     N    1   5.932   4.972   7.592 -0.2988  0.1098 -0.8088
    1SAPS   HN1    2   5.944   4.997   7.692  0.1815 -0.8921 -0.6071
    1SAPS   HN2    3   5.997   5.029   7.533 -0.4430  0.9772 -0.1555
    1SAPS   HN3    4   5.831   4.988   7.571 -0.6843  0.8145  1.3548
    1SAPS   C12    5   5.981   4.828   7.587  0.2309  0.2517 -0.1219
    1SAPS  H12A    6   6.085   4.832   7.617  0.3431  0.9386 -0.5861
    1SAPS   C13    7   5.924   4.729   7.684 -0.1278 -0.4775  0.5203
    1SAPS  O13A    8   5.835   4.768   7.764  0.5070  0.1533  0.3999
    1SAPS  O13B    9   5.976   4.615   7.704 -0.1985 -0.4919  0.5857
    1SAPS   C11   10   5.985   4.775   7.443  0.4143  0.0418 -0.2053
    1SAPS  H11A   11   5.885   4.803   7.403  0.5497 -0.1570 -0.6903
    1SAPS  H11B   12   5.995   4.667   7.417 -2.6492  0.2286 -2.7167
    1SAPS     P   13   6.214   4.798   7.301 -0.2572  0.1411 -0.1193
    1SAPS   O13   14   6.331   4.829   7.387 -0.3280  0.5006 -0.1897
    1SAPS   O14   15   6.191   4.657   7.257  0.0712 -0.4538  0.6838
    1SAPS   O12   16   6.085   4.851   7.369 -0.1909 -0.4010 -0.2173
    1SAPS   O11   17   6.218   4.870   7.157 -0.0054  0.4556 -0.0608
    1SAPS    C1   18   6.098   4.883   7.082 -0.1982  0.9338 -0.1481
    1SAPS    HA   19   6.038   4.790   7.080 -2.2996  2.1733  1.1159
    1SAPS    HB   20   6.028   4.951   7.135 -0.7166  1.1539 -1.0911
    1SAPS    C2   21   6.123   4.918   6.935  0.3020  0.1573  0.1593
    1SAPS    HS   22   6.021   4.932   6.892  0.6418 -3.5060 -2.2962
    1SAPS   O21   23   6.198   4.812   6.868  0.3835  0.4725  0.3216
    1SAPS   C21   24   6.138   4.718   6.794  0.6232 -0.2896 -0.4810
    1SAPS   O22   25   6.016   4.701   6.786  0.2997  0.0789 -0.3271
    1SAPS   C22   26   6.235   4.637   6.713  0.4347 -0.8604  0.4351
    1SAPS   H2R   27   6.331   4.685   6.744  0.3086 -0.5085  0.2814
    1SAPS   H2S   28   6.234   4.529   6.740 -2.5453 -2.1749 -3.9410
    1SAPS    C3   29   6.201   5.048   6.923 -0.3156 -0.0309  0.0229
    1SAPS    HX   30   6.303   5.020   6.957 -1.1423 -3.0077  0.3250
    1SAPS    HY   31   6.159   5.118   6.999  1.8723 -0.7698  2.0297
    1SAPS   O31   32   6.189   5.098   6.790  0.1413  0.4538 -0.6683
    1SAPS   C31   33   6.303   5.137   6.739 -0.8725  0.1573  0.7737
    1SAPS   O32   34   6.414   5.132   6.788  0.4283  0.1079  0.0308
    1SAPS   C32   35   6.267   5.202   6.602  0.1081  1.0667 -0.1385
    1SAPS   H2X   36   6.208   5.295   6.613 -0.8295  0.6061 -1.0823
    1SAPS   H2Y   37   6.220   5.128   6.533 -0.3103 -0.6232  1.8607
    1SAPS   C23   38   6.206   4.633   6.563  0.0321 -0.5694 -0.2124
    1SAPS   H3R   39   6.112   4.586   6.528 -0.5112  0.6513 -0.4407
    1SAPS   H3S   40   6.285   4.579   6.506  0.4627  1.6348 -1.8362
    1SAPS   C24   41   6.192   4.779   6.501  0.5259  0.3323 -0.5157
    1SAPS   H4R   42   6.117   4.834   6.562  0.4441 -0.6406  0.2964
    1SAPS   H4S   43   6.141   4.781   6.402  0.5869  0.7913 -0.5408
    1SAPS   C25   44   6.322   4.856   6.506 -0.4206  0.0994 -0.5180
    1SAPS   H5R   45   6.360   4.901   6.599 -0.4383  1.5163 -1.1683
    1SAPS   C26   46   6.389   4.893   6.399  0.4724  0.2938  0.4309
    1SAPS   H6R   47   6.473   4.964   6.410 -0.0030  1.0928 -0.8374
    1SAPS   C27   48   6.338   4.884   6.258  0.6162  0.3277 -0.2364
    1SAPS   H7R   49   6.380   4.963   6.193 -0.6725  0.1002 -1.4024
    1SAPS   H7S   50   6.228   4.904   6.256  0.1881 -1.6600  0.8719
    1SAPS   C28   51   6.360   4.753   6.181  0.1127  0.6050  0.7007
    1SAPS   H8R   52   6.375   4.657   6.233 -0.2597 -0.4645 -1.0828
    1SAPS   C29   53   6.336   4.729   6.050  0.4179  1.0645 -0.4205
    1SAPS   H9R   54   6.372   4.631   6.015  0.6853 -0.1563  2.9305
    1SAPS  C210   55   6.301   4.832   5.950 -0.3433 -0.0408  0.7896
    1SAPS  H10R   56   6.252   4.920   5.997 -0.7879 -0.7285  1.6185
    1SAPS  H10S   57   6.224   4.790   5.882  1.0246  0.7442 -1.3597
    1SAPS  C211   58   6.413   4.889   5.862 -0.0158  0.1634 -0.5092
    1SAPS  H11R   59   6.495   4.930   5.922  0.8563  0.3718 -1.7874
    1SAPS  C212   60   6.412   4.887   5.727 -0.2264  0.1745 -0.5398
    1SAPS  H12R   61   6.495   4.935   5.672 -0.6871  1.9599  0.2483
    1SAPS  C213   62   6.303   4.845   5.638  0.3466  0.2580  0.0272
    1SAPS  H13R   63   6.204   4.869   5.681 -0.6260 -0.6528 -1.6125
    1SAPS  H13S   64   6.295   4.734   5.631  0.7072  0.3397 -3.1762
    1SAPS  C214   65   6.297   4.886   5.493  0.6200  0.0582  0.0408
    1SAPS  H14R   66   6.209   4.944   5.460  0.1055 -0.8533 -0.2327
    1SAPS  C215   67   6.379   4.837   5.401 -0.1771 -0.9331  0.0187
    1SAPS  H15R   68   6.378   4.893   5.306 -0.2786 -0.8898  0.0441
    1SAPS  C216   69   6.495   4.744   5.415  0.8850  0.0192  0.5929
    1SAPS  H16R   70   6.508   4.706   5.518 -0.6307 -0.1214  0.7512
    1SAPS  H16S   71   6.588   4.795   5.381 -0.1768  0.2434 -2.2611
    1SAPS  C217   72   6.461   4.626   5.314  0.2725  0.2070 -0.3329
    1SAPS  H17R   73   6.463   4.670   5.212 -0.2795 -0.9625 -0.8703
    1SAPS  H17S   74   6.358   4.584   5.324  0.4178 -0.5830 -1.8398
    1SAPS  C218   75   6.581   4.524   5.311  0.3779  1.0925 -0.4431
    1SAPS  H18R   76   6.597   4.492   5.416  2.8914 -0.6903 -1.2732
    1SAPS  H18S   77   6.670   4.576   5.269 -0.2628  0.7478 -2.3534
    1SAPS  C219   78   6.557   4.394   5.220 -0.4147 -0.5392 -0.1009
    1SAPS  H19R   79   6.484   4.336   5.280  0.6739 -3.0457 -1.0430
    1SAPS  H19S   80   6.655   4.341   5.222 -0.4310 -0.6250  3.3155
    1SAPS  C220   81   6.496   4.422   5.085  0.3970 -0.5714 -0.0754
    1SAPS  H20R   82   6.393   4.461   5.095  1.3446  2.3249 -0.7357
    1SAPS  H20S   83   6.505   4.334   5.017  2.6122 -0.6386  0.2254
    1SAPS  H20T   84   6.555   4.507   5.044 -0.8824  1.2092  1.6276
    1SAPS   C33   85   6.392   5.250   6.530 -0.0417  0.0592 -0.4275
    1SAPS   H3X   86   6.472   5.173   6.524 -1.1175 -1.1482  0.2402
    1SAPS   H3Y   87   6.434   5.336   6.586  0.4493 -0.9671  0.8424
    1SAPS   C34   88   6.369   5.293   6.380 -0.0836 -0.0641 -0.1161
    1SAPS   H4X   89   6.282   5.362   6.380  0.8179  1.1185 -1.1377
    1SAPS   H4Y   90   6.356   5.207   6.311 -1.0735 -0.1721  0.1942
    1SAPS   C35   91   6.496   5.378   6.343  0.0781  0.4088  0.2814
    1SAPS   H5X   92   6.586   5.319   6.369 -0.3476  0.9476  3.3091
    1SAPS   H5Y   93   6.497   5.471   6.404 -0.7284  0.2785  0.5043
    1SAPS   C36   94   6.487   5.414   6.194 -0.1326 -0.5913 -0.3746
    1SAPS   H6X   95   6.400   5.481   6.178 -0.4239 -0.8825 -0.0224
    1SAPS   H6Y   96   6.473   5.320   6.136 -2.7806 -1.1883  1.0608
    1SAPS   C37   97   6.616   5.491   6.154 -0.1572  0.0009 -0.4432
    1SAPS   H7X   98   6.705   5.427   6.171 -1.2775 -1.6768 -0.6506
    1SAPS   H7Y   99   6.612   5.574   6.227  1.6100  1.3417 -1.8060
    1SAPS   C38  100   6.623   5.561   6.019 -0.4135 -0.5859  0.1887
    1SAPS   H8X  101   6.519   5.589   5.992 -0.3028  1.6464  1.7623
    1SAPS   H8Y  102   6.659   5.494   5.938  0.9328  1.2157 -0.7762
    1SAPS   C39  103   6.693   5.697   6.010  0.1052 -0.0296  0.2087
    1SAPS   H9X  104   6.802   5.685   5.992 -0.1655 -1.7988 -0.4543
    1SAPS   H9Y  105   6.685   5.744   6.110 -1.1626  1.5526 -0.5940
    1SAPS  C310  106   6.629   5.796   5.909  0.1864  0.1500 -0.2945
    1SAPS  H10X  107   6.680   5.894   5.923 -1.5690  1.4094 -2.1353
    1SAPS  H10Y  108   6.518   5.804   5.918 -0.1170 -0.7372 -2.7076
    1SAPS  C311  109   6.665   5.770   5.763 -0.4977  0.3753 -0.6098
    1SAPS  H11X  110   6.649   5.663   5.741 -1.1512  0.1712  0.7579
    1SAPS  H11Y  111   6.775   5.777   5.755 -0.5429 -0.3674 -2.1740
    1SAPS  C312  112   6.599   5.862   5.665  0.7389  0.3008  0.7231
    1SAPS  H12X  113   6.575   5.959   5.714 -2.9761  0.6076 -1.3850
    1SAPS  H12Y  114   6.496   5.830   5.639  0.9919 -0.0259  0.1078
    1SAPS  C313  115   6.679   5.884   5.535 -0.3555  0.0989 -0.2590
    1SAPS  H13X  116   6.706   5.780   5.506  0.3630  0.5212 -1.1705
    1SAPS  H13Y  117   6.772   5.938   5.563  0.5438 -0.1780 -2.4778
    1SAPS  C314  118   6.606   5.947   5.425  0.2889 -0.0317 -0.4980
    1SAPS  H14X  119   6.585   6.053   5.454  3.6356  0.3612  0.9512
    1SAPS  H14Y  120   6.512   5.894   5.402 -1.0321  2.6768 -1.7821
    1SAPS  C315  121   6.703   5.950   5.302  0.1778  0.5590 -0.4409
    1SAPS  H15X  122   6.734   5.849   5.266  1.8034  1.5331 -1.9304
    1SAPS  H15Y  123   6.791   6.003   5.346  0.2946 -1.0503  1.4037
    1SAPS  C316  124   6.637   6.009   5.180  0.5016  0.1960 -1.0459
    1SAPS  H16X  125   6.595   6.108   5.210 -1.7185 -0.8061 -0.6810
    1SAPS  H16Y  126   6.557   5.939   5.149 -0.3555  0.9044 -0.4828
    1SAPS  C317  127   6.737   6.023   5.064  0.3069 -0.3937 -1.0503
    1SAPS  H17X  128   6.756   5.923   5.020  1.1015 -0.7446  0.0411
    1SAPS  H17Y  129   6.837   6.060   5.093  1.0497  0.1243 -3.9767
    1SAPS  C318  130   6.676   6.114   4.960 -0.0908  0.0457  0.3286
    1SAPS  H18X  131   6.727   6.113   4.861 -1.6026 -1.3107 -0.4819
    1SAPS  H18Y  132   6.685   6.217   4.999 -1.2868 -0.2173  1.3637
    1SAPS  H18Z  133   6.570   6.083   4.945 -0.2774  0.7543  0.1557
    2SAPS     N  134   0.485   4.898   7.357 -0.0492  0.0869  0.2066
    2SAPS   HN1  135   0.426   4.905   7.273  1.4081 -0.9463 -0.9652
    2SAPS   HN2  136   0.456   4.965   7.431 -0.1994  0.8808 -0.5612
    2SAPS   HN3  137   0.582   4.924   7.330  0.1212  1.0708  1.6320
    2SAPS   C12  138   0.478   4.757   7.396  0.3202 -0.0036  0.1450
    2SAPS  H12A  139   0.570   4.734   7.449  1.3465  0.9615 -1.1362
    2SAPS   C13  140   0.363   4.722   7.503 -0.9116 -0.5227 -0.0503
    2SAPS  O13A  141   0.288   4.809   7.548  0.3508  0.6863 -0.6287
    2SAPS  O13B  142   0.365   4.605   7.546 -0.1961 -0.4896 -0.1699
    2SAPS   C11  143   0.463   4.663   7.272  0.7371  0.5601  0.2379
    2SAPS  H11A  144   0.364   4.679   7.223 -1.0793  0.6036  3.6622
    2SAPS  H11B  145   0.456   4.558   7.307 -1.8851  0.6441  0.1921
    2SAPS     P  146   0.557   4.627   7.035 -0.3225  0.2515  0.3293
    2SAPS   O13  147   0.659   4.694   6.948 -0.1639 -0.4892  0.3582
    2SAPS   O14  148   0.579   4.481   7.040  0.5282  0.0914 -0.0791
    2SAPS   O12  149   0.571   4.680   7.183  0.4334 -0.1985  0.2332
    2SAPS   O11  150   0.414   4.673   6.996  0.2309  0.2285 -0.2415
    2SAPS    C1  151   0.387   4.810   6.956  0.1847 -0.6456 -0.2869
    2SAPS    HA  152   0.284   4.827   6.996  0.1849 -0.0886 -0.5174
    2SAPS    HB  153   0.462   4.881   6.995  1.5885 -1.6257 -1.1210
    2SAPS    C2  154   0.406   4.825   6.808  0.3845  0.3755 -0.1282
    2SAPS    HS  155   0.509   4.799   6.777  0.1410 -0.2015 -0.4610
    2SAPS   O21  156   0.379   4.962   6.779 -0.6067 -0.0382  0.3629
    2SAPS   C21  157   0.479   5.046   6.776 -1.1026  0.5162  0.5487
    2SAPS   O22  158   0.598   5.014   6.799  0.3623 -0.1039 -0.3894
    2SAPS   C22  159   0.439   5.189   6.747 -0.6016  0.2093 -0.6707
    2SAPS   H2R  160   0.331   5.191   6.720 -1.4533  0.1825  2.3739
    2SAPS   H2S  161   0.442   5.240   6.846 -0.7420 -1.1503  0.0571
    2SAPS    C3  162   0.315   4.736   6.715 -0.2621 -0.7395  0.4403
    2SAPS    HX  163   0.213   4.744   6.757 -0.0577  2.4768  0.6261
    2SAPS    HY  164   0.338   4.628   6.728 -0.3872 -0.5577  2.4687
    2SAPS   O31  165   0.312   4.783   6.577 -0.1390  0.0586  0.4043
    2SAPS   C31  166   0.416   4.753   6.501  0.7951 -0.8559 -0.0888
    2SAPS   O32  167   0.502   4.672   6.531  0.2976 -0.6232  0.0651
    2SAPS   C32  168   0.403   4.827   6.365  0.0231 -0.4523 -0.0274
    2SAPS   H2X  169   0.492   4.890   6.345  0.1367 -1.0985 -1.7359
    2SAPS   H2Y  170   0.319   4.900   6.366  1.5596  1.4762 -2.2028
    2SAPS   C23  171   0.517   5.259   6.636  0.4708 -0.9905 -0.1458
    2SAPS   H3R  172   0.624   5.232   6.645  1.0888  1.3336 -0.1432
    2SAPS   H3S  173   0.516   5.367   6.662 -0.0823 -1.1992  0.7698
    2SAPS   C24  174   0.441   5.249   6.499  0.1783  0.1644 -0.1812
    2SAPS   H4R  175   0.338   5.287   6.508  0.2064  0.3550 -0.6439
    2SAPS   H4S  176   0.428   5.139   6.489 -0.4800  0.1463  0.8241
    2SAPS   C25  177   0.530   5.300   6.391 -0.4695  0.1310 -0.9299
    2SAPS   H5R  178   0.630   5.334   6.420 -0.8990  0.1968  0.5971
    2SAPS   C26  179   0.495   5.307   6.263  0.7543 -0.3714 -0.0083
    2SAPS   H6R  180   0.576   5.340   6.196  0.5033  0.9980  0.3540
    2SAPS   C27  181   0.367   5.256   6.195  1.2091  0.6045  0.2555
    2SAPS   H7R  182   0.347   5.159   6.246 -1.1545  0.8860 -0.0164
    2SAPS   H7S  183   0.386   5.254   6.086  0.8896  2.3716  0.1328
    2SAPS   C28  184   0.246   5.345   6.231 -0.6485 -0.0826  0.4211
    2SAPS   H8R  185   0.244   5.380   6.336  0.5301 -0.7071  0.6729
    2SAPS   C29  186   0.151   5.378   6.140 -0.0217 -0.3146  0.0163
    2SAPS   H9R  187   0.064   5.439   6.170 -0.2544 -1.3040  1.4066
    2SAPS  C210  188   0.143   5.342   5.994  0.5602 -0.1184  0.3131
    2SAPS  H10R  189   0.041   5.371   5.962  0.3959  1.0937  1.8212
    2SAPS  H10S  190   0.148   5.232   5.981 -2.4029 -0.2693 -0.2337
    2SAPS  C211  191   0.241   5.414   5.905 -0.1637  0.5116  1.2551
    2SAPS  H11R  192   0.348   5.389   5.918  0.8658  3.2293 -0.9686
    2SAPS  C212  193   0.232   5.518   5.812  0.4182  0.4337 -0.6363
    2SAPS  H12R  194   0.325   5.562   5.774  2.8937 -3.2013  0.6826
    2SAPS  C213  195   0.111   5.598   5.781 -0.5077 -0.2415  0.7142
    2SAPS  H13R  196   0.055   5.627   5.873 -0.1772  2.6974  0.1048
    2SAPS  H13S  197   0.038   5.538   5.722 -1.4037  1.3178  0.1718
    2SAPS  C214  198   0.142   5.724   5.708 -0.7686 -0.2603  0.1870
    2SAPS  H14R  199   0.163   5.801   5.784  2.7768 -0.6054 -0.2488
    2SAPS  C215  200   0.147   5.754   5.574 -0.4432  0.0104 -0.2838
    2SAPS  H15R  201   0.197   5.849   5.549  0.7314 -0.7536 -0.9488
    2SAPS  C216  202   0.136   5.650   5.468 -0.5027 -0.3995 -0.4960
    2SAPS  H16R  203   0.082   5.566   5.517 -0.9617  0.2870  0.2018
    2SAPS  H16S  204   0.232   5.620   5.422  0.4244  2.6559 -0.7621
    2SAPS  C217  205   0.057   5.695   5.344 -0.3836 -0.3013 -0.1715
    2SAPS  H17R  206  -0.044   5.736   5.370  0.6413  1.4778  1.2601
    2SAPS  H17S  207   0.035   5.607   5.280  0.1035  1.6754 -3.2744
    2SAPS  C218  208   0.118   5.796   5.247  0.0765 -0.7524 -0.6563
    2SAPS  H18R  209   0.113   5.904   5.273 -2.8159 -0.6849 -1.1561
    2SAPS  H18S  210   0.056   5.785   5.156 -2.7315 -1.3933  1.2020
    2SAPS  C219  211   0.266   5.761   5.212 -0.2059  0.9599  0.3712
    2SAPS  H19R  212   0.275   5.650   5.220  1.4987  1.1058  0.8820
    2SAPS  H19S  213   0.327   5.813   5.289  0.3306  0.2253  0.4611
    2SAPS  C220  214   0.299   5.799   5.068  0.4431 -0.1539 -0.2841
    2SAPS  H20R  215   0.399   5.759   5.041 -0.5883 -1.1231 -3.1203
    2SAPS  H20S  216   0.292   5.908   5.049 -2.9100 -0.1390  0.4831
    2SAPS  H20T  217   0.230   5.752   4.995 -0.8626 -0.1765  0.9298
    2SAPS   C33  218   0.373   4.736   6.240 -0.0783 -0.5453 -0.3145
    2SAPS   H3X  219   0.304   4.653   6.268 -3.4729  2.5439  1.3860
    2SAPS   H3Y  220   0.466   4.695   6.196  0.6710 -0.4617  1.1389
    2SAPS   C34  221   0.299   4.825   6.136  0.2165  0.5246  0.4346
    2SAPS   H4X  222   0.345   4.926   6.137 -0.3526  0.7981 -0.1132
    2SAPS   H4Y  223   0.193   4.833   6.170  0.4684  0.3392  1.2960
    2SAPS   C35  224   0.318   4.761   5.994 -0.2607 -0.1727 -0.5290
    2SAPS   H5X  225   0.293   4.654   6.011  0.7077 -0.7173 -2.3524
    2SAPS   H5Y  226   0.424   4.758   5.963 -0.0486 -1.1290  0.2269
    2SAPS   C36  227   0.217   4.817   5.890  0.1703 -0.8549  0.1586
    2SAPS   H6X  228   0.112   4.808   5.925  0.9906 -1.3896  2.7580
    2SAPS   H6Y  229   0.232   4.762   5.794 -0.3445 -2.2515  0.8445
    2SAPS   C37  230   0.228   4.969   5.864  0.4207  0.1466 -0.6197
    2SAPS   H7X  231   0.190   5.034   5.945 -0.3266 -0.0112 -0.8335
    2SAPS   H7Y  232   0.144   4.993   5.795 -0.9581 -0.8805  0.6370
    2SAPS   C38  233   0.356   5.015   5.787  0.0443 -0.1907 -0.2345
    2SAPS   H8X  234   0.389   4.923   5.735  0.4626 -0.3764  0.3425
    2SAPS   H8Y  235   0.445   5.033   5.851 -1.1523  0.2835  1.3830
    2SAPS   C39  236   0.337   5.121   5.679  0.1163 -0.9369 -0.2526
    2SAPS   H9X  237   0.313   5.217   5.730 -2.8686 -0.8167 -1.6964
    2SAPS   H9Y  238   0.255   5.101   5.607 -0.8126  1.6092 -0.0224
    2SAPS  C310  239   0.474   5.152   5.600  0.3857  0.5194  0.1099
    2SAPS  H10X  240   0.503   5.061   5.544 -2.2982 -0.3767  0.0003
    2SAPS  H10Y  241   0.553   5.176   5.674 -0.7027  1.4579  1.0193
    2SAPS  C311  242   0.454   5.265   5.494 -0.0593  0.1593  0.2776
    2SAPS  H11X  243   0.435   5.366   5.537 -1.3643  1.5887 -3.2505
    2SAPS  H11Y  244   0.365   5.245   5.430  0.9204 -2.0482 -0.4770
    2SAPS  C312  245   0.580   5.265   5.408 -0.2063  0.6430 -0.4770
    2SAPS  H12X  246   0.606   5.163   5.374 -1.8948 -0.7747  2.1444
    2SAPS  H12Y  247   0.662   5.278   5.483 -0.6012 -1.6859  0.4582
    2SAPS  C313  248   0.594   5.365   5.292  0.3405  0.3893 -0.2675
    2SAPS  H13X  249   0.557   5.464   5.325  1.2377  1.2658 -1.7590
    2SAPS  H13Y  250   0.525   5.331   5.211  0.4589 -2.4234  0.7284
    2SAPS  C314  251   0.729   5.377   5.234  0.0388 -0.3458  0.1855
    2SAPS  H14X  252   0.769   5.275   5.211 -3.1562 -1.2541 -2.1148
    2SAPS  H14Y  253   0.810   5.419   5.297  0.1035 -2.0636  1.3107
    2SAPS  C315  254   0.708   5.456   5.096 -0.6736 -0.1751  0.0295
    2SAPS  H15X  255   0.701   5.566   5.110  1.2689 -0.0111 -0.0139
    2SAPS  H15Y  256   0.617   5.417   5.046 -0.9959  1.1072 -0.4392
    2SAPS  C316  257   0.827   5.458   5.004  0.4966  0.0216  0.5991
    2SAPS  H16X  258   0.864   5.355   4.982 -1.6042 -0.7043  0.1606
    2SAPS  H16Y  259   0.908   5.520   5.046  0.3166  0.2214  0.6534
    2SAPS  C317  260   0.786   5.528   4.871 -0.0619 -0.0173 -0.0834
    2SAPS  H17X  261   0.755   5.633   4.886  1.7326  0.6665 -0.8967
    2SAPS  H17Y  262   0.691   5.476   4.848 -0.4510 -0.7566  2.8623
    2SAPS  C318  263   0.894   5.515   4.758  0.1768  0.2096 -0.2620
    2SAPS  H18X  264   0.927   5.410   4.746  0.8266  0.4016 -0.2253
    2SAPS  H18Y  265   0.981   5.578   4.787  1.0978 -0.9596 -0.4018
    2SAPS  H18Z  266   0.845   5.551   4.664 -2.0114 -2.9438 -0.4632
    3SAPS     N  267   0.139   5.004   7.641 -0.9963 -0.4885  0.0250
    3SAPS   HN1  268   0.132   5.035   7.741  2.0338 -0.1368  0.2245
    3SAPS   HN2  269   0.188   4.913   7.630 -0.2431 -0.3850  2.0846
    3SAPS   HN3  270   0.200   5.074   7.594 -1.1950  0.0546  0.5485
    3SAPS   C12  271   0.010   5.016   7.578  0.8344  0.1087 -0.2016
    3SAPS  H12A  272  -0.057   4.951   7.632 -0.6837 -0.4694 -2.6204
    3SAPS   C13  273  -0.058   5.149   7.588  0.8044 -0.4317  0.1307
    3SAPS  O13A  274   0.015   5.240   7.645 -0.0680  0.2441 -0.2969
    3SAPS  O13B  275  -0.168   5.177   7.535 -0.3290 -0.8789  0.2193
    3SAPS   C11  276   0.032   4.960   7.436  0.0975  0.1166 -0.0310
    3SAPS  H11A  277  -0.064   4.974   7.382 -1.6347  0.4965  2.9322
    3SAPS  H11B  278   0.058   4.852   7.445  2.6600  0.5995 -0.7123
    3SAPS     P  279   0.161   5.016   7.214  0.2668  0.5306 -0.0725
    3SAPS   O13  280   0.091   5.126   7.150 -0.1606 -0.1786 -0.2742
    3SAPS   O14  281   0.308   5.008   7.193  0.2139 -0.4268  0.1847
    3SAPS   O12  282   0.138   5.029   7.372  0.3915  0.3443  0.0867
    3SAPS   O11  283   0.092   4.873   7.188  0.2647 -0.2379 -0.4062
    3SAPS    C1  284  -0.046   4.854   7.138 -0.2663  0.3606 -0.4375
    3SAPS    HA  285  -0.089   4.778   7.206  1.2879  1.5346  1.9931
    3SAPS    HB  286  -0.111   4.942   7.157  0.4510  0.8118 -0.0145
    3SAPS    C2  287  -0.061   4.803   6.993 -0.1850  0.6237 -0.4332
    3SAPS    HS  288  -0.170   4.784   6.981 -0.4030  1.2750  0.4180
    3SAPS   O21  289   0.013   4.684   6.972  0.3566 -0.3010 -0.4997
    3SAPS   C21  290  -0.036   4.579   7.026  0.4022 -0.0003  0.1022
    3SAPS   O22  291  -0.132   4.563   7.097 -0.0634 -0.0808  0.3677
    3SAPS   C22  292   0.045   4.459   6.983 -0.2944 -0.4717  0.0268
    3SAPS   H2R  293   0.079   4.486   6.881 -2.3751 -0.9490 -0.8453
    3SAPS   H2S  294   0.139   4.459   7.043  0.9445  0.0980 -1.8275
    3SAPS    C3  295  -0.013   4.904   6.893 -0.2006 -0.4996  0.3034
    3SAPS    HX  296   0.097   4.902   6.876 -0.4729 -1.8434 -1.6839
    3SAPS    HY  297  -0.049   5.004   6.923 -0.5933  0.9581 -4.1976
    3SAPS   O31  298  -0.064   4.886   6.758 -0.2030 -0.2872  0.3669
    3SAPS   C31  299  -0.032   4.987   6.680 -0.6412  0.5356 -0.5482
    3SAPS   O32  300   0.036   5.078   6.723  0.2522 -0.5338 -0.4434
    3SAPS   C32  301  -0.083   4.964   6.542 -0.0919  0.2535 -0.2306
    3SAPS   H2X  302  -0.194   4.972   6.545 -0.3134 -1.7905 -1.2984
    3SAPS   H2Y  303  -0.055   4.861   6.511  0.9934  0.7908 -1.1401
    3SAPS   C23  304  -0.033   4.325   6.977  0.4438 -0.7127 -0.1032
    3SAPS   H3R  305  -0.105   4.322   7.062  0.8256 -0.0744  0.2454
    3SAPS   H3S  306   0.045   4.247   6.992  0.2723 -0.8630  0.0082
    3SAPS   C24  307  -0.114   4.294   6.840 -0.1431  0.1351 -0.1010
    3SAPS   H4R  308  -0.136   4.186   6.827 -1.1395  0.0791  1.6683
    3SAPS   H4S  309  -0.047   4.331   6.759  0.1874 -0.4463 -0.1002
    3SAPS   C25  310  -0.249   4.368   6.841  0.5280  0.5345 -0.3501
    3SAPS   H5R  311  -0.330   4.340   6.910  0.5005 -2.8615 -1.5539
    3SAPS   C26  312  -0.294   4.467   6.768  0.7371 -0.4262 -0.6942
    3SAPS   H6R  313  -0.395   4.504   6.789  1.1330 -0.1214  0.7865
    3SAPS   C27  314  -0.209   4.530   6.654  0.1630  0.5886  0.3088
    3SAPS   H7R  315  -0.163   4.448   6.594  0.4957  0.5002  0.6839
    3SAPS   H7S  316  -0.129   4.596   6.694  0.5661 -0.6509  1.6068
    3SAPS   C28  317  -0.293   4.611   6.561  0.6475 -0.7360  0.1449
    3SAPS   H8R  318  -0.363   4.676   6.615  1.5033  1.6754 -1.4597
    3SAPS   C29  319  -0.281   4.618   6.426  0.6607  1.2689 -0.4790
    3SAPS   H9R  320  -0.357   4.680   6.376 -1.5780 -0.3750  0.7133
    3SAPS  C210  321  -0.195   4.540   6.326 -0.1548  0.3548  0.1875
    3SAPS  H10R  322  -0.256   4.501   6.242  0.5015 -0.2773 -0.0044
    3SAPS  H10S  323  -0.140   4.460   6.380  0.9020  0.5190 -0.6129
    3SAPS  C211  324  -0.084   4.618   6.263  0.0847 -0.3815 -0.6795
    3SAPS  H11R  325  -0.019   4.668   6.337 -1.2344  1.8035 -0.9376
    3SAPS  C212  326  -0.040   4.627   6.139 -0.1276  0.2465  0.5390
    3SAPS  H12R  327   0.046   4.693   6.121  1.7297 -2.0670  0.3941
    3SAPS  C213  328  -0.098   4.561   6.018 -0.6669 -0.5666 -0.1064
    3SAPS  H13R  329  -0.099   4.453   6.047  0.8442  0.1468  3.0842
    3SAPS  H13S  330  -0.015   4.562   5.945 -0.3699 -2.0536  0.1645
    3SAPS  C214  331  -0.228   4.613   5.972 -0.1582 -1.1441 -0.2419
    3SAPS  H14R  332  -0.304   4.634   6.048  0.3659  0.1953 -0.0597
    3SAPS  C215  333  -0.260   4.633   5.841 -0.2774 -0.7337  0.0139
    3SAPS  H15R  334  -0.360   4.671   5.816 -0.3369 -1.3562 -0.7480
    3SAPS  C216  335  -0.176   4.613   5.723  0.1370 -0.0973 -0.3029
    3SAPS  H16R  336  -0.235   4.554   5.650 -0.0081 -0.6351  0.2366
    3SAPS  H16S  337  -0.081   4.560   5.744  0.2944  0.7176  1.1682
    3SAPS  C217  338  -0.133   4.747   5.672 -0.6007 -0.0691  0.7159
    3SAPS  H17R  339  -0.075   4.797   5.752  1.5370 -1.9852  0.4648
    3SAPS  H17S  340  -0.223   4.810   5.651 -0.3948  0.2986  0.9452
    3SAPS  C218  341  -0.052   4.737   5.545 -0.5493  0.5216  1.0300
    3SAPS  H18R  342  -0.126   4.698   5.472  1.7032 -2.9993  0.3822
    3SAPS  H18S  343   0.026   4.658   5.550 -2.0429 -1.1911 -1.1288
    3SAPS  C219  344   0.007   4.877   5.509  1.0533  0.4305 -0.3297
    3SAPS  H19R  345  -0.076   4.946   5.534  1.5576  1.3062 -0.9984
    3SAPS  H19S  346   0.096   4.893   5.573  0.7765 -0.1882  0.2133
    3SAPS  C220  347   0.054   4.914   5.366  0.1537 -0.1589  0.5777
    3SAPS  H20R  348   0.123   5.000   5.376  1.4633 -0.8499 -1.6237
    3SAPS  H20S  349  -0.015   4.944   5.284 -0.1926 -0.6707  0.6774
    3SAPS  H20T  350   0.125   4.840   5.323 -1.6315 -0.5619 -1.9518
    3SAPS   C33  351  -0.035   5.066   6.437 -0.3283 -0.3396  0.3913
    3SAPS   H3X  352   0.073   5.075   6.462  0.0981 -2.8429 -0.3038
    3SAPS   H3Y  353  -0.091   5.161   6.451  2.0155  1.0545  0.8173
    3SAPS   C34  354  -0.047   5.032   6.288  0.2398 -0.0019  0.1604
    3SAPS   H4X  355  -0.020   4.926   6.269  3.7533  1.0045 -1.2802
    3SAPS   H4Y  356   0.033   5.096   6.243 -0.7473  1.1289 -0.0307
    3SAPS   C35  357  -0.191   5.045   6.242  0.3668  0.2395  0.1522
    3SAPS   H5X  358  -0.260   4.981   6.301  1.1464 -0.5605  0.2255
    3SAPS   H5Y  359  -0.221   5.149   6.269 -3.2179 -1.1188  2.1123
    3SAPS   C36  360  -0.225   5.022   6.094 -0.0371  0.4823  0.0810
    3SAPS   H6X  361  -0.333   5.034   6.071  0.2345  1.3348 -0.7869
    3SAPS   H6Y  362  -0.205   4.914   6.074  0.7674  0.6098  0.1785
    3SAPS   C37  363  -0.145   5.096   5.992 -0.3108 -0.9156  0.1317
    3SAPS   H7X  364  -0.067   5.031   5.949  0.3088  0.5827 -1.0923
    3SAPS   H7Y  365  -0.091   5.181   6.039 -0.1786 -0.1987 -1.2665
    3SAPS   C38  366  -0.218   5.164   5.877 -0.3094 -0.5041  0.2424
    3SAPS   H8X  367  -0.312   5.209   5.917  0.0385  0.3925  0.0681
    3SAPS   H8Y  368  -0.262   5.085   5.812 -0.0438 -0.3956 -0.0666
    3SAPS   C39  369  -0.137   5.246   5.774 -0.4239  0.3760 -0.8489
    3SAPS   H9X  370  -0.046   5.187   5.747 -1.4333 -0.3061 -3.0324
    3SAPS   H9Y  371  -0.107   5.344   5.817 -0.9011 -0.8043  2.4833
    3SAPS  C310  372  -0.222   5.272   5.652  0.4237  0.5198  0.2676
    3SAPS  H10X  373  -0.316   5.315   5.691 -0.4317  0.1121 -1.2360
    3SAPS  H10Y  374  -0.254   5.173   5.612  0.0204 -0.1156  2.0748
    3SAPS  C311  375  -0.168   5.356   5.539 -0.5172 -0.1947  0.6012
    3SAPS  H11X  376  -0.090   5.308   5.477 -2.0400 -1.1553 -0.6196
    3SAPS  H11Y  377  -0.118   5.449   5.573 -0.3417  0.9680 -2.5334
    3SAPS  C312  378  -0.281   5.402   5.445 -0.0140 -0.3371 -0.1091
    3SAPS  H12X  379  -0.332   5.479   5.508 -0.9277 -0.7578 -0.3206
    3SAPS  H12Y  380  -0.354   5.321   5.422  1.1095 -2.0975  2.1678
    3SAPS  C313  381  -0.231   5.465   5.306  0.1570 -0.1497 -0.6518
    3SAPS  H13X  382  -0.165   5.388   5.261  0.1273 -0.6551  0.1488
    3SAPS  H13Y  383  -0.165   5.543   5.348  0.0538 -0.8317  0.8275
    3SAPS  C314  384  -0.336   5.517   5.211  0.0088 -0.3554  0.0149
    3SAPS  H14X  385  -0.392   5.604   5.250  0.3909  0.0124 -0.2597
    3SAPS  H14Y  386  -0.416   5.442   5.196 -1.3867  1.3011 -1.1357
    3SAPS  C315  387  -0.284   5.551   5.069  0.2185  0.5156 -0.3105
    3SAPS  H15X  388  -0.243   5.455   5.031 -1.0233 -0.5266  0.8938
    3SAPS  H15Y  389  -0.210   5.634   5.073  0.3137  0.4246 -0.1713
    3SAPS  C316  390  -0.409   5.597   4.984  0.6773  0.4965 -0.1543
    3SAPS  H16X  391  -0.458   5.688   5.023  0.7587 -0.9205  3.6094
    3SAPS  H16Y  392  -0.482   5.513   4.984  2.0496 -0.7543 -1.4258
    3SAPS  C317  393  -0.364   5.622   4.843  0.2186  0.4900 -0.6795
    3SAPS  H17X  394  -0.320   5.531   4.798 -0.8564 -0.9276  1.0183
    3SAPS  H17Y  395  -0.277   5.691   4.847  1.5705 -1.2477  1.8779
    3SAPS  C318  396  -0.474   5.655   4.737  0.4084  0.0150  0.2457
    3SAPS  H18X  397  -0.520   5.749   4.776  0.8573  1.0621 -1.5895
    3SAPS  H18Y  398  -0.549   5.578   4.712  2.2901 -1.8584  0.0712
    3SAPS  H18Z  399  -0.421   5.678   4.642  1.6649 -2.3475  0.3109
    4SAPS     N  400   4.913   3.156   7.202 -1.1995 -0.1608 -0.4714
    4SAPS   HN1  401   4.927   3.259   7.210  2.7407 -0.3729 -2.5565
    4SAPS   HN2  402   4.862   3.137   7.114  0.1337  1.3760 -1.6268
    4SAPS   HN3  403   4.852   3.122   7.280 -0.6107 -1.2499 -0.4679
    4SAPS   C12  404   5.047   3.096   7.197  0.1501  0.8321 -0.2944
    4SAPS  H12A  405   5.088   3.124   7.101 -0.5106 -0.2469 -0.9112
    4SAPS   C13  406   5.152   3.130   7.307  0.1748 -0.0516  0.3846
    4SAPS  O13A  407   5.121   3.210   7.397  0.0653 -0.6023 -0.7431
    4SAPS  O13B  408   5.261   3.071   7.292  0.1757  0.1179  0.6208
    4SAPS   C11  409   5.034   2.940   7.180  0.1143  0.8601  0.1865
    4SAPS  H11A  410   5.012   2.911   7.285  0.6375 -2.6771 -0.5455
    4SAPS  H11B  411   5.129   2.894   7.145 -0.3210 -0.2927  0.4683
    4SAPS     P  412   4.896   2.742   7.083  0.0762 -0.2659  0.2748
    4SAPS   O13  413   4.986   2.663   7.164 -0.0698 -0.2354 -0.0027
    4SAPS   O14  414   4.759   2.731   7.135  0.1427 -0.0285 -0.4768
    4SAPS   O12  415   4.936   2.894   7.087 -0.0176  0.0588  0.1920
    4SAPS   O11  416   4.901   2.695   6.936  0.5011  0.6956 -0.2955
    4SAPS    C1  417   4.823   2.751   6.837 -0.0806 -0.4622 -0.7453
    4SAPS    HA  418   4.721   2.707   6.831  0.1100 -0.9194 -0.7171
    4SAPS    HB  419   4.795   2.856   6.858  0.4136 -0.3170 -0.8070
    4SAPS    C2  420   4.893   2.743   6.701 -0.1043  0.0515 -0.5334
    4SAPS    HS  421   4.863   2.834   6.646  2.1832  1.3220  0.2019
    4SAPS   O21  422   4.843   2.624   6.640  0.8174  0.0129 -0.3246
    4SAPS   C21  423   4.869   2.604   6.515  0.1864  0.0517 -0.5970
    4SAPS   O22  424   4.928   2.682   6.439 -0.6726  1.0046  0.3769
    4SAPS   C22  425   4.831   2.466   6.479  0.5050  0.8893  0.6172
    4SAPS   H2R  426   4.818   2.401   6.568  1.3958 -1.4228 -0.8222
    4SAPS   H2S  427   4.730   2.482   6.436  1.0728 -0.8123 -1.5174
    4SAPS    C3  428   5.048   2.744   6.710 -0.0955  0.0023  0.2218
    4SAPS    HX  429   5.096   2.735   6.610  2.0947 -1.2927  1.3202
    4SAPS    HY  430   5.083   2.651   6.760 -0.6481 -0.1108  0.4048
    4SAPS   O31  431   5.102   2.858   6.787 -0.7540  0.4273 -0.0429
    4SAPS   C31  432   5.119   2.974   6.721 -0.0755 -0.1196 -0.2633
    4SAPS   O32  433   5.106   2.985   6.602 -0.6535 -0.1495  0.3012
    4SAPS   C32  434   5.153   3.086   6.824 -0.3527  0.4377  0.1931
    4SAPS   H2X  435   5.239   3.048   6.883 -0.0169  0.5236 -0.2392
    4SAPS   H2Y  436   5.061   3.108   6.882  0.5500  0.9531  1.4884
    4SAPS   C23  437   4.914   2.402   6.369 -0.0785  0.1636 -0.7105
    4SAPS   H3R  438   5.024   2.411   6.386  0.3477  1.1492 -3.4293
    4SAPS   H3S  439   4.897   2.463   6.278 -0.5594  1.2425  0.0835
    4SAPS   C24  440   4.883   2.251   6.346  0.0553 -0.1705 -0.6199
    4SAPS   H4R  441   4.921   2.204   6.439 -1.0374 -1.0635 -0.6071
    4SAPS   H4S  442   4.955   2.211   6.270 -0.5092 -3.8122  0.5815
    4SAPS   C25  443   4.747   2.199   6.316 -0.4387  0.7784 -0.0840
    4SAPS   H5R  444   4.691   2.137   6.388 -0.7588 -0.3654 -1.2602
    4SAPS   C26  445   4.672   2.223   6.203 -1.0638  0.0183  0.0873
    4SAPS   H6R  446   4.577   2.174   6.178 -0.1094 -1.3806 -0.9580
    4SAPS   C27  447   4.736   2.292   6.080  0.0769 -0.1738 -0.4994
    4SAPS   H7R  448   4.688   2.240   5.994  0.3050 -0.2543 -0.5768
    4SAPS   H7S  449   4.838   2.251   6.067  0.4185  0.6659 -0.5628
    4SAPS   C28  450   4.730   2.439   6.076 -0.0711  0.1176 -0.2122
    4SAPS   H8R  451   4.711   2.486   6.173 -0.4942  0.9002 -0.6634
    4SAPS   C29  452   4.739   2.510   5.963 -0.1223 -0.2922 -0.7626
    4SAPS   H9R  453   4.738   2.620   5.966 -0.8553 -0.3275  0.6601
    4SAPS  C210  454   4.752   2.452   5.822  0.5562  0.2812  0.0150
    4SAPS  H10R  455   4.690   2.360   5.814  1.8620 -0.5140 -1.4951
    4SAPS  H10S  456   4.856   2.421   5.799  0.3764 -1.5277  1.3963
    4SAPS  C211  457   4.710   2.547   5.714  0.3358  0.6030 -0.6483
    4SAPS  H11R  458   4.668   2.641   5.752  1.8242  1.0992 -0.1403
    4SAPS  C212  459   4.727   2.527   5.586 -0.9120  0.7948 -0.0658
    4SAPS  H12R  460   4.680   2.595   5.513 -1.5117 -0.3753 -0.7935
    4SAPS  C213  461   4.810   2.414   5.525  0.1527 -0.6271  0.5895
    4SAPS  H13R  462   4.793   2.322   5.584  0.2939  0.7100  2.8008
    4SAPS  H13S  463   4.918   2.422   5.549  0.1892  0.1205  0.2076
    4SAPS  C214  464   4.785   2.387   5.376 -0.2308  0.3048 -0.1669
    4SAPS  H14R  465   4.867   2.413   5.307 -0.4004 -0.0136 -0.4909
    4SAPS  C215  466   4.666   2.344   5.327  0.8266 -0.6982 -0.0060
    4SAPS  H15R  467   4.649   2.330   5.219 -2.7871  0.9423  0.2245
    4SAPS  C216  468   4.557   2.299   5.419  0.5959 -0.2365 -0.2640
    4SAPS  H16R  469   4.585   2.286   5.526 -2.4847 -2.2681  0.4390
    4SAPS  H16S  470   4.534   2.196   5.383 -1.5287 -0.4309  1.4194
    4SAPS  C217  471   4.424   2.372   5.408 -0.7257 -0.3417  0.7864
    4SAPS  H17R  472   4.447   2.481   5.411 -0.3673 -0.4375  1.7521
    4SAPS  H17S  473   4.352   2.342   5.487 -0.9883 -1.5090  0.1276
    4SAPS  C218  474   4.364   2.339   5.262  0.2885  0.2029  0.3407
    4SAPS  H18R  475   4.346   2.232   5.237 -2.3418  1.0815 -2.2014
    4SAPS  H18S  476   4.427   2.392   5.188 -1.0947  1.3526 -0.0642
    4SAPS  C219  477   4.216   2.391   5.244 -0.4554  0.0357  0.1059
    4SAPS  H19R  478   4.152   2.340   5.319 -0.6256  1.4598  0.9725
    4SAPS  H19S  479   4.193   2.362   5.140  0.4521 -0.3932  0.0158
    4SAPS  C220  480   4.195   2.538   5.262 -0.4344 -0.5149 -0.5116
    4SAPS  H20R  481   4.206   2.565   5.370  0.7231 -1.5521 -0.3527
    4SAPS  H20S  482   4.095   2.570   5.226  0.0032  2.6384  0.6914
    4SAPS  H20T  483   4.266   2.596   5.200  0.9786 -0.0224  1.4443
    4SAPS   C33  484   5.183   3.223   6.759 -0.5347  0.3229 -0.5333
    4SAPS   H3X  485   5.145   3.297   6.833 -1.7069 -1.2033  0.4524
    4SAPS   H3Y  486   5.121   3.240   6.668  0.4243  1.5049 -0.9847
    4SAPS   C34  487   5.335   3.258   6.741 -0.0636 -0.3206  0.1590
    4SAPS   H4X  488   5.379   3.211   6.832 -0.6906  0.5925  0.9501
    4SAPS   H4Y  489   5.358   3.366   6.753 -0.6920 -0.1907  0.2683
    4SAPS   C35  490   5.396   3.210   6.610  0.3584 -0.4228 -0.0663
    4SAPS   H5X  491   5.411   3.100   6.605 -0.4012 -0.5540  0.4041
    4SAPS   H5Y  492   5.499   3.250   6.595 -0.2690  1.2668 -0.0720
    4SAPS   C36  493   5.321   3.253   6.487  0.2379 -0.2302  0.0393
    4SAPS   H6X  494   5.310   3.363   6.487  1.3987 -0.1000 -0.0954
    4SAPS   H6Y  495   5.226   3.195   6.490  0.4859 -0.6246  0.3816
    4SAPS   C37  496   5.402   3.220   6.364 -0.5635  0.7821 -0.6478
    4SAPS   H7X  497   5.461   3.127   6.379 -0.3225  1.0971  0.4280
    4SAPS   H7Y  498   5.479   3.300   6.362  0.6889 -0.3099 -3.6797
    4SAPS   C38  499   5.330   3.203   6.227 -0.0182  0.1118 -0.4085
    4SAPS   H8X  500   5.277   3.297   6.197 -0.2467  0.3514  0.6909
    4SAPS   H8Y  501   5.265   3.114   6.216  0.6745 -0.3001 -1.3280
    4SAPS   C39  502   5.418   3.184   6.103 -0.3495  0.0331 -0.5580
    4SAPS   H9X  503   5.357   3.158   6.013 -1.2072  0.1334 -0.0137
    4SAPS   H9Y  504   5.484   3.098   6.128  0.2268  0.6486  0.0509
    4SAPS  C310  505   5.510   3.311   6.075  0.3169 -0.2551  0.7847
    4SAPS  H10X  506   5.567   3.341   6.166 -0.6087  1.3885  0.8551
    4SAPS  H10Y  507   5.434   3.390   6.062  0.4296 -0.1393  0.8326
    4SAPS  C311  508   5.595   3.300   5.947  1.0150 -0.5250  0.3340
    4SAPS  H11X  509   5.640   3.199   5.956  0.1283 -0.7878  2.1401
    4SAPS  H11Y  510   5.667   3.384   5.955  0.9134 -0.3822 -0.1990
    4SAPS  C312  511   5.510   3.321   5.818 -0.6525  0.1342  1.2214
    4SAPS  H12X  512   5.439   3.407   5.817  0.0466  0.7748 -1.0514
    4SAPS  H12Y  513   5.454   3.229   5.788 -1.0498  0.6769  0.2243
    4SAPS  C313  514   5.601   3.346   5.695 -0.1014  0.8213  0.2104
    4SAPS  H13X  515   5.669   3.258   5.696 -0.4936  0.4916 -0.6688
    4SAPS  H13Y  516   5.664   3.434   5.719 -1.5624  1.6050  1.3122
    4SAPS  C314  517   5.527   3.352   5.567  1.0700 -0.1954  0.1387
    4SAPS  H14X  518   5.431   3.407   5.571  0.0250 -1.9611  0.4413
    4SAPS  H14Y  519   5.481   3.253   5.547 -1.0092  0.7084  0.2280
    4SAPS  C315  520   5.616   3.362   5.445 -0.4688 -0.3289 -0.0047
    4SAPS  H15X  521   5.681   3.272   5.455 -0.0204 -0.3038 -2.2411
    4SAPS  H15Y  522   5.680   3.453   5.454  3.3329 -2.6923 -0.5784
    4SAPS  C316  523   5.542   3.353   5.310 -0.0451 -0.7720  0.2859
    4SAPS  H16X  524   5.479   3.261   5.305 -0.3410 -0.5476 -0.1989
    4SAPS  H16Y  525   5.613   3.347   5.225 -1.3771  2.1374 -1.1757
    4SAPS  C317  526   5.455   3.473   5.284  0.5142  0.0092 -0.1013
    4SAPS  H17X  527   5.507   3.528   5.203  2.3590 -0.6187  0.6012
    4SAPS  H17Y  528   5.467   3.530   5.379  1.6007  0.7203 -0.6478
    4SAPS  C318  529   5.304   3.431   5.249 -0.6629 -0.2739  0.2791
    4SAPS  H18X  530   5.236   3.518   5.249 -2.7606 -1.8120  1.4065
    4SAPS  H18Y  531   5.260   3.362   5.324 -1.8859 -0.2349 -0.3761
    4SAPS  H18Z  532   5.306   3.392   5.145  0.9613  0.4285  0.0177
    5SAPS     N  533   1.431   5.080   7.011 -0.0013  0.8442  0.4580
    5SAPS   HN1  534   1.530   5.095   6.983  0.6464 -1.1158  1.5185
    5SAPS   HN2  535   1.409   4.981   7.034 -0.2134  0.9628  0.7755
    5SAPS   HN3  536   1.370   5.097   6.928 -1.1369 -1.2801  0.7830
    5SAPS   C12  537   1.387   5.173   7.120 -0.6236  0.2147 -0.1352
    5SAPS  H12A  538   1.432   5.270   7.104  0.5567  0.1058  2.1783
    5SAPS   C13  539   1.231   5.186   7.122 -0.2528  0.0228 -0.7498
    5SAPS  O13A  540   1.162   5.155   7.023 -0.3272 -0.3191  0.3301
    5SAPS  O13B  541   1.176   5.231   7.226 -0.0184 -0.1018  0.4714
    5SAPS   C11  542   1.430   5.106   7.263  0.4071  0.3325 -1.1530
    5SAPS  H11A  543   1.391   5.003   7.278 -0.7228  0.7029 -1.4644
    5SAPS  H11B  544   1.371   5.148   7.348  0.2767 -1.3340 -0.3816
    5SAPS     P  545   1.655   5.177   7.373  0.2168 -0.4240  0.0996
    5SAPS   O13  546   1.572   5.195   7.494 -0.3234  0.2471  0.0110
    5SAPS   O14  547   1.796   5.117   7.393  0.0517  0.0361 -0.0743
    5SAPS   O12  548   1.571   5.089   7.285 -0.5831  0.2864 -0.0326
    5SAPS   O11  549   1.663   5.319   7.299 -0.3843  0.1329  0.0562
    5SAPS    C1  550   1.706   5.339   7.169 -0.2330 -1.1294 -0.0476
    5SAPS    HA  551   1.814   5.315   7.160  0.3691  0.2607  2.6538
    5SAPS    HB  552   1.646   5.281   7.095  0.7593 -1.4423 -0.6279
    5SAPS    C2  553   1.698   5.491   7.147  0.0623 -0.4514 -0.2426
    5SAPS    HS  554   1.747   5.538   7.235  0.8270 -1.2053 -0.2558
    5SAPS   O21  555   1.557   5.517   7.138 -0.1265  0.3808 -0.3439
    5SAPS   C21  556   1.521   5.636   7.176 -0.1424 -0.0491  0.0644
    5SAPS   O22  557   1.601   5.715   7.226 -0.6572  0.1816  0.1595
    5SAPS   C22  558   1.377   5.654   7.140 -0.0628 -0.4518 -0.0485
    5SAPS   H2R  559   1.329   5.571   7.196 -2.5089  1.6840  1.2410
    5SAPS   H2S  560   1.337   5.748   7.184 -0.8939 -0.4639 -0.7738
    5SAPS    C3  561   1.766   5.534   7.016 -0.9042  0.0316 -0.5851
    5SAPS    HX  562   1.875   5.514   7.021 -1.4722 -3.3113  0.5231
    5SAPS    HY  563   1.738   5.642   7.006 -1.1385 -0.0026 -0.3169
    5SAPS   O31  564   1.708   5.464   6.906 -0.0933 -0.8324 -0.1969
    5SAPS   C31  565   1.782   5.444   6.806  0.5538 -0.4547 -1.0545
    5SAPS   O32  566   1.902   5.469   6.797 -0.5020 -0.0392  0.0482
    5SAPS   C32  567   1.699   5.357   6.709 -1.3163 -0.2023  0.3475
    5SAPS   H2X  568   1.613   5.413   6.668 -1.0069 -0.5323 -0.7698
    5SAPS   H2Y  569   1.684   5.252   6.742  2.6608 -1.5147 -1.3837
    5SAPS   C23  570   1.334   5.638   6.991  0.3653 -0.4263 -1.1836
    5SAPS   H3R  571   1.230   5.605   7.009  0.3391  0.7428  1.1216
    5SAPS   H3S  572   1.389   5.558   6.936  1.2859  0.9079 -2.2777
    5SAPS   C24  573   1.336   5.783   6.924 -0.2770  0.6391  0.2942
    5SAPS   H4R  574   1.436   5.819   6.957  0.9195 -0.6770 -1.6651
    5SAPS   H4S  575   1.267   5.847   6.983 -1.4528 -1.1609  0.9399
    5SAPS   C25  576   1.319   5.777   6.770 -0.0942 -0.6046 -0.6249
    5SAPS   H5R  577   1.215   5.792   6.739  0.0346 -3.4118 -2.9636
    5SAPS   C26  578   1.414   5.741   6.684  0.4508  0.4257  0.4377
    5SAPS   H6R  579   1.383   5.739   6.579  0.6237  1.5035  0.3497
    5SAPS   C27  580   1.554   5.689   6.716 -0.8167 -0.2682  0.0910
    5SAPS   H7R  581   1.596   5.633   6.631  0.2618  0.4224  0.1468
    5SAPS   H7S  582   1.543   5.611   6.795 -1.1367  0.7923  1.1296
    5SAPS   C28  583   1.641   5.806   6.766  0.5876 -0.1640 -0.1313
    5SAPS   H8R  584   1.621   5.853   6.864 -2.2698 -0.8237 -0.3039
    5SAPS   C29  585   1.743   5.857   6.701 -0.3501 -0.7837 -0.4795
    5SAPS   H9R  586   1.799   5.939   6.749  0.3263 -0.2361 -2.1097
    5SAPS  C210  587   1.800   5.818   6.564 -0.1466  0.1727  0.4637
    5SAPS  H10R  588   1.822   5.709   6.570  1.0496  0.4334  0.8908
    5SAPS  H10S  589   1.894   5.875   6.547 -1.8351  3.0745  0.1293
    5SAPS  C211  590   1.703   5.842   6.450 -0.3736  0.7178 -0.6481
    5SAPS  H11R  591   1.598   5.832   6.479  0.2890  0.5337  1.9391
    5SAPS  C212  592   1.734   5.862   6.324  0.4763  0.3012 -0.3407
    5SAPS  H12R  593   1.659   5.873   6.244 -0.2412  1.7109  0.5048
    5SAPS  C213  594   1.876   5.867   6.270 -0.3681 -0.6996  0.0993
    5SAPS  H13R  595   1.958   5.889   6.342 -0.9703 -2.6105  1.4413
    5SAPS  H13S  596   1.880   5.953   6.199 -0.4076 -1.8460 -1.3309
    5SAPS  C214  597   1.910   5.742   6.193 -0.6620  0.2364 -0.1158
    5SAPS  H14R  598   1.900   5.653   6.257 -0.2317 -0.3408 -0.8347
    5SAPS  C215  599   1.978   5.736   6.076 -0.6482 -0.0482  0.0526
    5SAPS  H15R  600   2.027   5.641   6.048  2.4920  1.6053 -0.5457
    5SAPS  C216  601   2.013   5.849   5.983  0.9357 -0.0233 -0.0791
    5SAPS  H16R  602   2.124   5.851   5.980  0.9672  0.3248  0.9066
    5SAPS  H16S  603   1.988   5.947   6.028 -2.6520  0.5671 -2.8631
    5SAPS  C217  604   1.966   5.862   5.844  0.2324  0.2646 -0.1001
    5SAPS  H17R  605   1.996   5.964   5.812 -1.8253  1.8811  2.6477
    5SAPS  H17S  606   1.859   5.861   5.813  0.1079  1.9727  0.1447
    5SAPS  C218  607   2.052   5.758   5.761  0.0384 -0.4210 -0.3787
    5SAPS  H18R  608   2.008   5.657   5.779 -0.5366  0.3222  2.9896
    5SAPS  H18S  609   2.157   5.767   5.798 -0.6230  0.9104  1.2875
    5SAPS  C219  610   2.037   5.801   5.615  0.5644  0.5805 -0.0599
    5SAPS  H19R  611   2.091   5.898   5.609  1.7867  0.0263  1.4231
    5SAPS  H19S  612   1.931   5.822   5.590  0.0141 -1.6333  0.1780
    5SAPS  C220  613   2.094   5.704   5.507 -0.2824 -0.1974 -0.1662
    5SAPS  H20R  614   2.027   5.618   5.491 -1.2163  0.1979  1.4951
    5SAPS  H20S  615   2.195   5.665   5.534 -0.1793 -0.5788 -1.0453
    5SAPS  H20T  616   2.106   5.763   5.413 -0.0644  0.0488  0.0138
    5SAPS   C33  617   1.785   5.333   6.581 -0.7288 -0.1176 -0.2584
    5SAPS   H3X  618   1.884   5.299   6.616  0.5830  4.4548  1.1564
    5SAPS   H3Y  619   1.788   5.426   6.521  0.5496 -0.4101 -0.6667
    5SAPS   C34  620   1.722   5.222   6.496  0.3049 -0.2451  0.5485
    5SAPS   H4X  621   1.617   5.247   6.467  0.9288  0.4606 -1.2786
    5SAPS   H4Y  622   1.737   5.131   6.557 -0.2442 -0.6014  0.1683
    5SAPS   C35  623   1.803   5.195   6.360 -0.6524  0.1471  0.5558
    5SAPS   H5X  624   1.765   5.102   6.311  0.3714 -0.0167  0.0527
    5SAPS   H5Y  625   1.907   5.166   6.384 -0.3967  0.4093 -0.2156
    5SAPS   C36  626   1.788   5.306   6.260 -0.1402 -0.8203 -0.4691
    5SAPS   H6X  627   1.853   5.393   6.284 -1.6667 -0.3531  2.4945
    5SAPS   H6Y  628   1.685   5.344   6.242 -0.7699 -2.8219 -1.3301
    5SAPS   C37  629   1.840   5.260   6.123  0.3480  0.3195  0.5451
    5SAPS   H7X  630   1.772   5.214   6.048  0.2382 -0.5985  1.1905
    5SAPS   H7Y  631   1.912   5.177   6.140 -0.0229 -0.4257 -1.2321
    5SAPS   C38  632   1.920   5.381   6.059 -0.2812  0.4767  0.6495
    5SAPS   H8X  633   2.002   5.418   6.125  0.1292  1.8332 -0.5803
    5SAPS   H8Y  634   1.854   5.468   6.041  1.0199  1.7944  1.8489
    5SAPS   C39  635   1.988   5.345   5.920 -0.2093 -0.1670 -0.1087
    5SAPS   H9X  636   2.066   5.266   5.921  1.0060  0.8975 -2.7867
    5SAPS   H9Y  637   2.043   5.431   5.876 -1.7987  1.8505  1.6243
    5SAPS  C310  638   1.893   5.302   5.809  0.2047  0.0527  0.7054
    5SAPS  H10X  639   1.812   5.375   5.786  1.9047  1.0780 -2.7868
    5SAPS  H10Y  640   1.841   5.208   5.837 -0.4876 -0.2523 -1.4318
    5SAPS  C311  641   1.965   5.280   5.677  0.3605 -0.9352 -0.3404
    5SAPS  H11X  642   2.043   5.203   5.698 -0.4137 -2.1484 -1.7130
    5SAPS  H11Y  643   2.006   5.379   5.648  0.5711 -0.6896  0.7519
    5SAPS  C312  644   1.860   5.242   5.568  0.4145 -0.0876 -0.0202
    5SAPS  H12X  645   1.772   5.310   5.564 -0.1963 -0.9100 -1.1631
    5SAPS  H12Y  646   1.817   5.145   5.601 -2.4624  1.1775  0.2441
    5SAPS  C313  647   1.935   5.225   5.429  0.0916  0.1509  0.7165
    5SAPS  H13X  648   1.850   5.194   5.364  0.2531 -0.4165  0.7786
    5SAPS  H13Y  649   2.012   5.146   5.426 -1.7816 -1.7571  0.6461
    5SAPS  C314  650   1.987   5.360   5.378  0.4708 -0.2262  0.6314
    5SAPS  H14X  651   2.063   5.403   5.446 -0.4641 -0.7440  2.0557
    5SAPS  H14Y  652   1.895   5.423   5.374  1.3181  0.9681 -1.8696
    5SAPS  C315  653   2.045   5.353   5.244 -0.1505 -0.4149 -0.6577
    5SAPS  H15X  654   1.963   5.324   5.174  0.0336 -0.6216 -0.7921
    5SAPS  H15Y  655   2.114   5.266   5.230 -0.5014 -0.3405 -3.5583
    5SAPS  C316  656   2.120   5.474   5.201 -0.0012 -0.0435 -0.1877
    5SAPS  H16X  657   2.197   5.460   5.123  0.8344  0.5839  0.5066
    5SAPS  H16Y  658   2.183   5.515   5.283  2.1994  0.4475 -2.0307
    5SAPS  C317  659   2.041   5.594   5.147 -0.1977  0.0126 -0.0318
    5SAPS  H17X  660   2.106   5.684   5.142  2.0144 -1.5118 -0.2677
    5SAPS  H17Y  661   1.962   5.616   5.222  0.9513  1.0575  0.9081
    5SAPS  C318  662   1.977   5.572   5.004  0.1638  0.0285  0.2244
    5SAPS  H18X  663   1.919   5.663   4.978 -3.2779 -1.6501  1.4305
    5SAPS  H18Y  664   1.905   5.488   5.008 -1.8184  1.6990  1.9294
    5SAPS  H18Z  665   2.060   5.562   4.931 -1.4728  0.6782 -1.8307
    6SAPS     N  666   4.646   6.741   7.217  0.4172  0.7906 -0.4544
    6SAPS   HN1  667   4.555   6.788   7.199 -1.6529 -2.3499  0.9454
    6SAPS   HN2  668   4.683   6.800   7.294 -0.1223 -0.1123  0.5301
    6SAPS   HN3  669   4.705   6.726   7.132  0.8940  0.2457 -0.0361
    6SAPS   C12  670   4.598   6.603   7.264 -0.3279 -0.1982  0.2709
    6SAPS  H12A  671   4.682   6.561   7.318  1.2206  0.5942 -1.4332
    6SAPS   C13  672   4.475   6.614   7.358 -0.3825 -0.3913  0.1592
    6SAPS  O13A  673   4.412   6.721   7.374 -0.1966  0.2714  0.0407
    6SAPS  O13B  674   4.429   6.504   7.400  0.1065 -0.4329 -0.6738
    6SAPS   C11  675   4.565   6.502   7.145  0.1164 -0.3432  0.1128
    6SAPS  H11A  676   4.481   6.551   7.090  0.0995  0.3601  0.7543
    6SAPS  H11B  677   4.523   6.401   7.165 -0.4078  0.3714  2.9878
    6SAPS     P  678   4.763   6.391   6.998 -0.2131  0.1300 -0.3107
    6SAPS   O13  679   4.844   6.441   6.884 -0.0000 -0.5119  0.2869
    6SAPS   O14  680   4.837   6.326   7.113 -0.0540 -0.0617  0.0680
    6SAPS   O12  681   4.677   6.513   7.058  0.0616  0.2511  0.1051
    6SAPS   O11  682   4.670   6.286   6.932  0.0999 -0.5773 -0.5153
    6SAPS    C1  683   4.553   6.308   6.851  0.0587 -0.2843  0.3794
    6SAPS    HA  684   4.478   6.233   6.884 -0.2214 -0.8371 -1.3784
    6SAPS    HB  685   4.514   6.408   6.879  1.1382 -0.1187  1.3907
    6SAPS    C2  686   4.579   6.283   6.697  0.3388 -0.1675  0.0579
    6SAPS    HS  687   4.503   6.337   6.636  0.2129 -0.1625  0.2194
    6SAPS   O21  688   4.592   6.149   6.661 -0.2278  0.3986  0.4470
    6SAPS   C21  689   4.469   6.095   6.640 -0.8873 -0.3135  0.2858
    6SAPS   O22  690   4.363   6.149   6.664 -0.8301 -0.1014 -0.6819
    6SAPS   C22  691   4.490   5.948   6.607  0.1195 -0.0155 -0.5613
    6SAPS   H2R  692   4.598   5.934   6.584  0.2496  0.5477 -0.2868
    6SAPS   H2S  693   4.473   5.890   6.700  1.0442 -0.2076 -0.5001
    6SAPS    C3  694   4.709   6.345   6.645  0.4352  0.3134  0.1409
    6SAPS    HX  695   4.800   6.293   6.682 -0.0025 -1.1185 -0.7498
    6SAPS    HY  696   4.720   6.450   6.681  0.8391 -0.3327  1.9944
    6SAPS   O31  697   4.713   6.340   6.500 -0.2073 -0.4845 -0.1331
    6SAPS   C31  698   4.819   6.411   6.454 -0.1096  0.1651 -0.2787
    6SAPS   O32  699   4.900   6.474   6.523  0.2168 -0.5593 -0.2223
    6SAPS   C32  700   4.821   6.399   6.305  0.0759  0.0702  0.3655
    6SAPS   H2X  701   4.716   6.395   6.267  0.1486 -2.2058  0.2678
    6SAPS   H2Y  702   4.872   6.304   6.277 -0.2736 -0.5871  1.8667
    6SAPS   C23  703   4.391   5.905   6.497 -0.1660  0.3481 -0.0256
    6SAPS   H3R  704   4.287   5.911   6.537  0.2669 -0.8826  1.3843
    6SAPS   H3S  705   4.398   5.798   6.468 -0.0286 -0.2305  1.9972
    6SAPS   C24  706   4.393   6.001   6.370 -0.9651 -0.7811 -0.7974
    6SAPS   H4R  707   4.357   6.101   6.400 -0.9873 -1.0276  0.0302
    6SAPS   H4S  708   4.315   5.968   6.299 -1.2045 -0.9020 -0.4820
    6SAPS   C25  709   4.529   6.022   6.305 -0.6557  0.0344  0.0582
    6SAPS   H5R  710   4.612   6.037   6.376 -2.5805  1.2761  2.1976
    6SAPS   C26  711   4.556   6.039   6.175  0.1529  0.4452  0.0468
    6SAPS   H6R  712   4.658   6.046   6.135  0.3182  2.1044  0.7227
    6SAPS   C27  713   4.456   6.027   6.062  0.2832 -0.1081 -0.0689
    6SAPS   H7R  714   4.456   6.129   6.019  1.1353 -0.3435 -0.6649
    6SAPS   H7S  715   4.358   5.994   6.103  0.3616 -1.1318 -0.6489
    6SAPS   C28  716   4.492   5.916   5.971 -0.2156  0.2453  0.6106
    6SAPS   H8R  717   4.525   5.822   6.016  2.0878  0.2354 -0.9385
    6SAPS   C29  718   4.494   5.922   5.833 -0.3136 -0.4195  0.0598
    6SAPS   H9R  719   4.509   5.826   5.782 -1.5100 -2.5303  3.2975
    6SAPS  C210  720   4.469   6.034   5.742  0.4243 -0.2150 -0.6140
    6SAPS  H10R  721   4.568   6.061   5.699  0.5480  0.5889  0.1453
    6SAPS  H10S  722   4.422   6.120   5.794  0.6099  0.5425 -1.6580
    6SAPS  C211  723   4.382   5.992   5.628  0.8045 -0.4206  1.1003
    6SAPS  H11R  724   4.276   6.016   5.646  1.0694  0.4442  1.5316
    6SAPS  C212  725   4.421   5.936   5.511  0.6879  0.3062  0.1804
    6SAPS  H12R  726   4.341   5.916   5.439  0.2981  2.6276 -0.1075
    6SAPS  C213  727   4.554   5.895   5.463 -0.2801 -0.2973 -0.4923
    6SAPS  H13R  728   4.628   5.893   5.545  0.1981  1.8921 -0.8012
    6SAPS  H13S  729   4.599   5.971   5.395  1.1988 -1.1555 -0.5123
    6SAPS  C214  730   4.555   5.759   5.399  0.2084 -0.3234  0.2999
    6SAPS  H14R  731   4.586   5.672   5.459 -0.2154 -0.4378  0.3571
    6SAPS  C215  732   4.526   5.741   5.272 -0.7412  0.9128 -0.0887
    6SAPS  H15R  733   4.523   5.639   5.231 -0.4598  1.0299 -0.4098
    6SAPS  C216  734   4.468   5.843   5.172 -0.1282 -0.0142  0.1367
    6SAPS  H16R  735   4.540   5.879   5.095  0.0361  0.2755  0.4211
    6SAPS  H16S  736   4.428   5.940   5.208  0.2141  1.3616 -2.8673
    6SAPS  C217  737   4.354   5.783   5.085 -0.5419  0.5746 -0.1272
    6SAPS  H17R  738   4.280   5.735   5.153 -0.4627 -0.5209 -0.7802
    6SAPS  H17S  739   4.391   5.698   5.024 -2.9112 -1.2728  0.8210
    6SAPS  C218  740   4.302   5.881   4.979 -0.8958  0.1551 -0.4479
    6SAPS  H18R  741   4.385   5.899   4.908 -2.7317 -1.8460 -3.3496
    6SAPS  H18S  742   4.268   5.977   5.022 -0.8498 -0.0510  0.0500
    6SAPS  C219  743   4.201   5.824   4.877 -0.4684 -0.5151 -0.0579
    6SAPS  H19R  744   4.097   5.806   4.913 -1.1299  1.1612 -1.0254
    6SAPS  H19S  745   4.235   5.722   4.849 -0.2519 -0.3593 -0.3672
    6SAPS  C220  746   4.200   5.913   4.757 -0.1416  1.2388 -0.2337
    6SAPS  H20R  747   4.295   5.906   4.700 -0.0579  0.2619  0.0141
    6SAPS  H20S  748   4.175   6.019   4.781  2.5353  1.7647  0.5528
    6SAPS  H20T  749   4.120   5.878   4.688  0.1221  1.7234 -0.7986
    6SAPS   C33  750   4.900   6.514   6.243 -0.7931  0.9817  0.1810
    6SAPS   H3X  751   5.000   6.534   6.287 -0.1675 -0.0466 -0.7179
    6SAPS   H3Y  752   4.837   6.605   6.241 -0.9327  0.8823  0.0874
    6SAPS   C34  753   4.921   6.487   6.092 -0.4175  0.3254 -0.1823
    6SAPS   H4X  754   4.999   6.408   6.100  0.3198  1.0608  0.0610
    6SAPS   H4Y  755   4.963   6.573   6.035 -1.0693  0.1744 -0.9015
    6SAPS   C35  756   4.795   6.441   6.018 -0.6487 -0.2191 -0.3395
    6SAPS   H5X  757   4.718   6.518   6.039  1.1970  1.8407 -0.7995
    6SAPS   H5Y  758   4.754   6.344   6.055  1.4908 -1.4452 -0.9852
    6SAPS   C36  759   4.812   6.439   5.866 -0.4816 -0.0259  0.5890
    6SAPS   H6X  760   4.893   6.372   5.829 -0.2061  1.5522 -1.8752
    6SAPS   H6Y  761   4.835   6.538   5.821 -0.9864  0.3192  1.0883
    6SAPS   C37  762   4.696   6.379   5.787  0.1948 -0.7154 -0.2296
    6SAPS   H7X  763   4.603   6.407   5.841  0.9257 -0.6899  1.0574
    6SAPS   H7Y  764   4.706   6.268   5.779  2.5577 -0.5077 -1.0539
    6SAPS   C38  765   4.696   6.419   5.638  0.2833 -0.2748  0.1495
    6SAPS   H8X  766   4.792   6.384   5.593  0.8731 -0.1643  1.2784
    6SAPS   H8Y  767   4.682   6.529   5.627 -1.6690 -0.3870  1.0453
    6SAPS   C39  768   4.580   6.358   5.560 -0.0155 -0.1403 -0.0741
    6SAPS   H9X  769   4.487   6.420   5.559 -1.4895 -2.2170  0.7477
    6SAPS   H9Y  770   4.562   6.262   5.613 -2.0879  0.2367 -0.0167
    6SAPS  C310  771   4.630   6.319   5.420  0.7113 -0.2410 -0.0653
    6SAPS  H10X  772   4.717   6.250   5.424  2.6368  2.0994  1.7305
    6SAPS  H10Y  773   4.663   6.415   5.375 -0.8863 -0.1460 -1.1052
    6SAPS  C311  774   4.517   6.259   5.332 -0.1744 -0.0743  0.6013
    6SAPS  H11X  775   4.418   6.309   5.335 -1.3234 -2.0204 -1.5540
    6SAPS  H11Y  776   4.496   6.163   5.384  0.0812 -0.2130  0.4536
    6SAPS  C312  777   4.565   6.227   5.195  0.6406 -0.4876 -0.2507
    6SAPS  H12X  778   4.500   6.144   5.159 -0.4353  0.9475 -1.7413
    6SAPS  H12Y  779   4.666   6.183   5.213  0.2554 -0.1993  3.5538
    6SAPS  C313  780   4.566   6.338   5.095 -0.0557 -0.0243  0.2068
    6SAPS  H13X  781   4.642   6.408   5.136  1.4547 -2.6098  2.1742
    6SAPS  H13Y  782   4.466   6.385   5.094  0.5084  1.2439  1.3849
    6SAPS  C314  783   4.601   6.299   4.943  0.4298  0.2104 -0.2936
    6SAPS  H14X  784   4.628   6.394   4.892  1.9935  0.4644  0.9388
    6SAPS  H14Y  785   4.514   6.245   4.899 -1.8829  2.4033  1.2610
    6SAPS  C315  786   4.725   6.209   4.939 -0.5147  0.7810  0.3576
    6SAPS  H15X  787   4.716   6.139   5.025 -1.3549  2.6414  1.8822
    6SAPS  H15Y  788   4.818   6.267   4.961  0.0304 -0.1867  0.6422
    6SAPS  C316  789   4.737   6.143   4.802 -0.1089  0.4285 -0.4771
    6SAPS  H16X  790   4.743   6.224   4.727  1.7243  2.5844  1.8096
    6SAPS  H16Y  791   4.655   6.070   4.783  0.7964 -1.1520  1.3116
    6SAPS  C317  792   4.865   6.058   4.787  0.1986 -0.0387  0.6142
    6SAPS  H17X  793   4.868   5.977   4.863  0.6745  0.7059  1.3972
    6SAPS  H17Y  794   4.953   6.118   4.816 -1.9867  2.1814  3.1036
    6SAPS  C318  795   4.861   5.999   4.648  0.1318  0.3574 -0.3947
    6SAPS  H18X  796   4.777   5.929   4.631  1.6911 -1.3363 -1.4537
    6SAPS  H18Y  797   4.955   5.948   4.618 -0.1324 -0.0494 -0.5280
    6SAPS  H18Z  798   4.836   6.089   4.587 -1.6773 -0.4220 -0.8564
    7SAPS     N  799   0.457   5.458   7.134  0.1920 -0.1159  0.1455
    7SAPS   HN1  800   0.544   5.473   7.079  0.9468  0.1340  1.3547
    7SAPS   HN2  801   0.455   5.357   7.156  1.6669  0.1132  1.5178
    7SAPS   HN3  802   0.383   5.482   7.065  1.1238  1.4031 -0.3797
    7SAPS   C12  803   0.444   5.538   7.258 -1.0242  0.8458  0.3341
    7SAPS  H12A  804   0.345   5.525   7.299 -0.3554 -0.1871  1.7097
    7SAPS   C13  805   0.544   5.499   7.373 -0.4281 -0.1606 -0.9996
    7SAPS  O13A  806   0.642   5.425   7.347 -0.7488 -0.7126  0.4659
    7SAPS  O13B  807   0.527   5.560   7.480  0.3212  0.9179 -0.6632
    7SAPS   C11  808   0.466   5.687   7.226  0.1215 -0.3395  0.1034
    7SAPS  H11A  809   0.455   5.752   7.315  1.0239 -1.0807  0.7733
    7SAPS  H11B  810   0.394   5.721   7.148  0.5208  1.3906  0.4323
    7SAPS     P  811   0.647   5.857   7.145 -0.1227  0.1833 -0.3320
    7SAPS   O13  812   0.598   5.943   7.250  0.4199  0.0591  0.3398
    7SAPS   O14  813   0.790   5.840   7.125 -0.0958 -0.0354 -0.8447
    7SAPS   O12  814   0.598   5.712   7.171 -0.0042  0.1128 -0.3943
    7SAPS   O11  815   0.570   5.898   7.013  0.2638 -0.1279 -0.1462
    7SAPS    C1  816   0.582   5.814   6.898 -0.7477 -0.0196  0.3434
    7SAPS    HA  817   0.685   5.774   6.887 -0.2268  1.3249  0.1188
    7SAPS    HB  818   0.518   5.723   6.893  0.5920 -1.0068  0.5801
    7SAPS    C2  819   0.555   5.894   6.766  0.3430  0.3215 -0.1882
    7SAPS    HS  820   0.638   5.967   6.760  1.7112 -1.0588  0.9812
    7SAPS   O21  821   0.421   5.950   6.781  0.0629 -0.2308  0.1083
    7SAPS   C21  822   0.405   6.065   6.713 -0.2242  0.4083  0.6122
    7SAPS   O22  823   0.490   6.125   6.648 -0.0776  0.3395 -0.2255
    7SAPS   C22  824   0.267   6.115   6.743  0.2848 -0.4446 -0.2804
    7SAPS   H2R  825   0.205   6.023   6.746  3.3764 -2.6814 -0.0298
    7SAPS   H2S  826   0.282   6.163   6.842  0.4263  1.1338 -1.0356
    7SAPS    C3  827   0.563   5.803   6.643 -0.3477  0.0084  0.7819
    7SAPS    HX  828   0.539   5.850   6.546 -1.1879 -0.8395  0.5590
    7SAPS    HY  829   0.487   5.723   6.661  2.3446 -2.0542  4.2658
    7SAPS   O31  830   0.692   5.729   6.641  0.4804  0.0978  0.2967
    7SAPS   C31  831   0.785   5.771   6.568 -0.5002  0.5207  0.0837
    7SAPS   O32  832   0.782   5.874   6.502 -0.0407  0.3230  0.0612
    7SAPS   C32  833   0.894   5.664   6.576  0.1211 -0.9769 -0.4063
    7SAPS   H2X  834   0.839   5.569   6.560 -1.2069 -0.0864 -1.3180
    7SAPS   H2Y  835   0.933   5.654   6.680 -2.5224  0.0808  0.7753
    7SAPS   C23  836   0.201   6.201   6.625 -0.4567 -0.0528 -0.2061
    7SAPS   H3R  837   0.205   6.139   6.533 -0.9542 -0.0544 -0.2269
    7SAPS   H3S  838   0.263   6.290   6.600  1.5787 -0.9704  1.2663
    7SAPS   C24  839   0.054   6.234   6.645 -0.2772  0.5430  0.8079
    7SAPS   H4R  840   0.029   6.296   6.557  1.0402 -1.1416 -0.8303
    7SAPS   H4S  841   0.051   6.302   6.733  1.7921  2.8984 -0.8150
    7SAPS   C25  842  -0.035   6.107   6.651  0.2632 -0.1766 -0.0984
    7SAPS   H5R  843  -0.033   6.056   6.748  1.9699 -0.3744 -0.2056
    7SAPS   C26  844  -0.107   6.067   6.546 -0.7276  0.4103  0.0573
    7SAPS   H6R  845  -0.179   5.986   6.565  0.5374 -1.3126 -1.9972
    7SAPS   C27  846  -0.105   6.126   6.408 -0.1874  0.2634  0.1700
    7SAPS   H7R  847  -0.008   6.090   6.367  1.0396  0.9538  2.3527
    7SAPS   H7S  848  -0.101   6.237   6.413 -1.9969  0.7302 -4.0288
    7SAPS   C28  849  -0.224   6.091   6.321  0.0300 -0.4543  0.2633
    7SAPS   H8R  850  -0.318   6.055   6.367 -1.1105 -2.4506 -3.2580
    7SAPS   C29  851  -0.235   6.098   6.187  0.1438 -0.7538  0.2483
    7SAPS   H9R  852  -0.328   6.063   6.140  0.7773 -1.9981 -0.1059
    7SAPS  C210  853  -0.133   6.135   6.078 -0.0963 -0.2649  0.3491
    7SAPS  H10R  854  -0.134   6.059   5.997 -1.8104  1.0625 -0.9423
    7SAPS  H10S  855  -0.033   6.139   6.127  0.5691  2.7481 -1.0264
    7SAPS  C211  856  -0.182   6.265   6.016 -0.1251  0.4019 -0.3182
    7SAPS  H11R  857  -0.198   6.349   6.086  0.1119  0.1721  0.0162
    7SAPS  C212  858  -0.189   6.285   5.885 -0.8579 -0.0559 -0.6612
    7SAPS  H12R  859  -0.215   6.385   5.847  2.8392  1.1508 -0.3448
    7SAPS  C213  860  -0.161   6.195   5.767 -0.3248 -1.1670 -0.3161
    7SAPS  H13R  861  -0.227   6.235   5.686  0.0033 -2.3903 -1.2214
    7SAPS  H13S  862  -0.180   6.089   5.791  2.8071 -1.2705  2.3553
    7SAPS  C214  863  -0.018   6.213   5.728  0.2598 -0.5494  0.5284
    7SAPS  H14R  864   0.053   6.195   5.810  1.0900  1.9386  0.4526
    7SAPS  C215  865   0.030   6.242   5.599 -0.3489  0.2058 -0.3663
    7SAPS  H15R  866   0.137   6.255   5.579 -0.7073  0.1239 -2.4999
    7SAPS  C216  867  -0.047   6.265   5.468 -0.0041 -0.0642  0.0576
    7SAPS  H16R  868  -0.143   6.210   5.462  0.9237 -1.8766  1.1827
    7SAPS  H16S  869   0.015   6.225   5.385 -1.5250 -0.0106 -1.1734
    7SAPS  C217  870  -0.079   6.414   5.453 -0.0234  0.4966  0.0571
    7SAPS  H17R  871   0.016   6.470   5.448  0.8000 -0.9281 -1.8071
    7SAPS  H17S  872  -0.146   6.449   5.534 -0.4991  0.7860 -0.4541
    7SAPS  C218  873  -0.161   6.429   5.326 -1.0165  0.0600 -0.2639
    7SAPS  H18R  874  -0.159   6.333   5.271 -0.1032 -1.6560  2.5792
    7SAPS  H18S  875  -0.117   6.507   5.260  0.9062  0.2933  1.2128
    7SAPS  C219  876  -0.313   6.459   5.347 -0.1347  0.0336  0.2007
    7SAPS  H19R  877  -0.360   6.405   5.432  0.0930 -1.9622 -0.8950
    7SAPS  H19S  878  -0.364   6.435   5.251 -1.1182 -0.5990  0.8549
    7SAPS  C220  879  -0.336   6.610   5.367  0.8289 -0.3086 -0.2822
    7SAPS  H20R  880  -0.286   6.636   5.462 -1.7467 -2.6870  1.8803
    7SAPS  H20S  881  -0.442   6.638   5.385  1.0641  0.7109 -0.4057
    7SAPS  H20T  882  -0.293   6.662   5.278 -0.2295  0.3255 -0.4486
    7SAPS   C33  883   1.009   5.667   6.469 -0.8782 -0.1316 -0.0159
    7SAPS   H3X  884   1.107   5.633   6.508 -0.3643  0.8753 -0.3997
    7SAPS   H3Y  885   1.018   5.772   6.434 -0.4270 -0.2747 -0.3245
    7SAPS   C34  886   0.984   5.578   6.345  0.1494  0.3058 -0.4954
    7SAPS   H4X  887   0.974   5.472   6.378 -1.0105  0.6056  0.1953
    7SAPS   H4Y  888   1.076   5.585   6.283  0.8385 -0.2192  0.4359
    7SAPS   C35  889   0.867   5.621   6.259 -0.7010  0.1243  0.3593
    7SAPS   H5X  890   0.854   5.732   6.261 -0.0470  0.2624 -1.5490
    7SAPS   H5Y  891   0.770   5.594   6.305 -0.4036 -1.2108  0.2428
    7SAPS   C36  892   0.864   5.573   6.114 -0.0636  0.0974 -0.3683
    7SAPS   H6X  893   0.870   5.462   6.116 -1.5435 -0.0046 -0.3911
    7SAPS   H6Y  894   0.949   5.608   6.052 -0.5124  2.0560  0.0453
    7SAPS   C37  895   0.742   5.620   6.046 -0.4042  0.4173 -0.3819
    7SAPS   H7X  896   0.748   5.729   6.023 -0.7125  0.2407 -1.3569
    7SAPS   H7Y  897   0.654   5.606   6.113  0.8993  2.5274  1.9524
    7SAPS   C38  898   0.720   5.553   5.912 -0.6008 -0.4940  0.9534
    7SAPS   H8X  899   0.693   5.446   5.920  1.9797 -1.2145  0.7535
    7SAPS   H8Y  900   0.818   5.555   5.861 -1.4743 -0.2928 -0.8274
    7SAPS   C39  901   0.620   5.634   5.822  0.0854  0.7188  0.1286
    7SAPS   H9X  902   0.664   5.734   5.799 -0.9625  1.1396 -0.0804
    7SAPS   H9Y  903   0.533   5.650   5.889 -0.9919 -2.8745 -0.1827
    7SAPS  C310  904   0.585   5.564   5.690 -0.1505  0.4612 -0.3914
    7SAPS  H10X  905   0.524   5.474   5.715 -0.6065  0.2399 -2.1939
    7SAPS  H10Y  906   0.677   5.545   5.631 -0.8305 -1.8228 -0.8233
    7SAPS  C311  907   0.513   5.671   5.611 -0.2369 -0.6688 -0.1392
    7SAPS  H11X  908   0.439   5.725   5.672 -0.2012 -0.6034 -0.1528
    7SAPS  H11Y  909   0.449   5.632   5.529 -3.9094  4.9388 -0.4332
    7SAPS  C312  910   0.603   5.777   5.537  0.1897  0.4942  0.2729
    7SAPS  H12X  911   0.640   5.729   5.444 -2.7316  1.9679 -1.8350
    7SAPS  H12Y  912   0.701   5.792   5.588  1.3345  1.0987 -1.9510
    7SAPS  C313  913   0.538   5.909   5.510  0.3483 -1.0518  0.0200
    7SAPS  H13X  914   0.448   5.888   5.449  0.8007 -2.7503 -0.1328
    7SAPS  H13Y  915   0.599   5.968   5.438 -0.5180 -0.5547 -0.3105
    7SAPS  C314  916   0.520   5.996   5.631 -0.1639  0.3498 -0.1945
    7SAPS  H14X  917   0.465   5.943   5.711  0.3897 -0.0310 -0.0621
    7SAPS  H14Y  918   0.455   6.084   5.608  0.0403  1.0672  1.7713
    7SAPS  C315  919   0.647   6.069   5.671  0.1674 -0.0007  0.1479
    7SAPS  H15X  920   0.654   6.158   5.604 -2.3633  0.3508  0.2538
    7SAPS  H15Y  921   0.733   6.001   5.654 -1.2616 -1.5326 -1.4431
    7SAPS  C316  922   0.633   6.118   5.808 -0.6369  0.3936  0.1046
    7SAPS  H16X  923   0.619   6.017   5.854 -0.9530 -0.8967 -2.6283
    7SAPS  H16Y  924   0.544   6.183   5.822  0.8950  2.6265  0.0316
    7SAPS  C317  925   0.748   6.203   5.862 -0.0948  0.1923 -0.1422
    7SAPS  H17X  926   0.751   6.309   5.826  0.1868 -0.4466 -2.1518
    7SAPS  H17Y  927   0.849   6.177   5.824  0.1596  0.8904  0.0247
    7SAPS  C318  928   0.746   6.188   6.012  0.2533  0.7054 -0.2731
    7SAPS  H18X  929   0.779   6.084   6.035  1.7724  0.9592 -1.1656
    7SAPS  H18Y  930   0.656   6.210   6.072  0.3205  1.9966 -0.6109
    7SAPS  H18Z  931   0.822   6.260   6.051  0.8225  1.3318 -2.3873
    8SAPS     N  932   4.366   0.932   7.026  0.4693 -0.2378  0.0670
    8SAPS   HN1  933   4.333   0.977   7.113  1.3932 -2.7229  1.8293
    8SAPS   HN2  934   4.382   0.995   6.945  1.5960 -1.5039 -0.7426
    8SAPS   HN3  935   4.292   0.865   6.998  0.3432  0.6643 -1.9164
    8SAPS   C12  936   4.491   0.857   7.064 -0.0889  0.7233 -0.5546
    8SAPS  H12A  937   4.567   0.849   6.988 -0.3720  0.6705 -0.8323
    8SAPS   C13  938   4.565   0.927   7.187  0.5342 -0.1283 -0.5147
    8SAPS  O13A  939   4.546   1.051   7.202  0.4758  0.0866  0.0278
    8SAPS  O13B  940   4.657   0.867   7.242  1.0807  0.8330 -0.5268
    8SAPS   C11  941   4.458   0.704   7.093 -0.1544 -0.6168  0.1473
    8SAPS  H11A  942   4.378   0.708   7.170 -0.4781  0.9724 -0.2382
    8SAPS  H11B  943   4.550   0.655   7.131  0.2425 -0.8732 -1.1155
    8SAPS     P  944   4.369   0.502   6.960 -0.0207 -0.0211 -0.3458
    8SAPS   O13  945   4.367   0.445   7.096  0.3843  0.1963 -0.6448
    8SAPS   O14  946   4.241   0.495   6.883 -0.3881 -1.1229 -0.8110
    8SAPS   O12  947   4.411   0.650   6.972  0.6037 -0.0764  0.0560
    8SAPS   O11  948   4.490   0.429   6.882  0.1140 -0.2228 -0.0025
    8SAPS    C1  949   4.600   0.489   6.814 -0.2894 -0.5827  0.4391
    8SAPS    HA  950   4.605   0.600   6.812  3.4983 -0.6176  1.3588
    8SAPS    HB  951   4.695   0.467   6.867 -0.6303  0.1989  1.4180
    8SAPS    C2  952   4.603   0.440   6.661  0.0893  0.3267  0.5728
    8SAPS    HS  953   4.687   0.482   6.601  0.5143 -0.8068  0.3523
    8SAPS   O21  954   4.471   0.469   6.602 -0.4751 -0.6923  0.4333
    8SAPS   C21  955   4.439   0.597   6.598 -0.4712 -0.2344 -1.1667
    8SAPS   O22  956   4.519   0.689   6.614  0.2247  0.3246  0.4370
    8SAPS   C22  957   4.290   0.617   6.555 -1.2796 -0.2924  0.4921
    8SAPS   H2R  958   4.287   0.595   6.446 -0.0689 -0.0093  0.3863
    8SAPS   H2S  959   4.228   0.546   6.614 -0.0975 -0.5655  1.4336
    8SAPS    C3  960   4.628   0.286   6.659  0.7061 -1.0141 -0.0669
    8SAPS    HX  961   4.534   0.241   6.698  0.4905  1.1743  2.1706
    8SAPS    HY  962   4.717   0.263   6.720  1.0365 -3.5512 -1.3840
    8SAPS   O31  963   4.644   0.234   6.525  0.2563 -0.3548  0.0632
    8SAPS   C31  964   4.748   0.159   6.499 -0.3134  0.7427  0.0869
    8SAPS   O32  965   4.827   0.114   6.578 -0.3731 -0.3389  0.4991
    8SAPS   C32  966   4.744   0.125   6.352  0.0771  0.1043  0.6001
    8SAPS   H2X  967   4.775   0.220   6.304  1.2418 -0.4592  0.2099
    8SAPS   H2Y  968   4.636   0.114   6.325  0.2270 -1.3583  0.5082
    8SAPS   C23  969   4.232   0.753   6.611 -0.0322  0.1137  0.5267
    8SAPS   H3R  970   4.309   0.823   6.572 -0.0327 -0.0220  0.2826
    8SAPS   H3S  971   4.240   0.768   6.721  1.3913  2.1265  0.2102
    8SAPS   C24  972   4.099   0.784   6.552  0.3164  0.4953  0.5954
    8SAPS   H4R  973   4.094   0.760   6.443  0.4659 -0.6419  0.8257
    8SAPS   H4S  974   4.087   0.892   6.576  1.9147  1.1361 -1.1567
    8SAPS   C25  975   3.999   0.691   6.612 -0.1668  0.0291  0.7568
    8SAPS   H5R  976   4.023   0.679   6.719  1.7565 -2.7769  0.1271
    8SAPS   C26  977   3.902   0.614   6.559 -0.1376 -0.6514 -0.1217
    8SAPS   H6R  978   3.847   0.548   6.628  0.2945 -0.3849  0.4879
    8SAPS   C27  979   3.862   0.599   6.408 -0.1190 -0.2166  0.0123
    8SAPS   H7R  980   3.940   0.645   6.344 -1.6156  2.6169  0.0701
    8SAPS   H7S  981   3.776   0.667   6.392  1.2895  1.9392  1.0352
    8SAPS   C28  982   3.818   0.462   6.370 -0.1206  0.1348 -0.5452
    8SAPS   H8R  983   3.811   0.390   6.453 -0.6418 -0.8322 -1.3930
    8SAPS   C29  984   3.826   0.403   6.252  0.6863  0.5291  0.1471
    8SAPS   H9R  985   3.767   0.311   6.240  1.3917 -0.0560  0.9682
    8SAPS  C210  986   3.844   0.478   6.124  0.4266  0.0959  0.0680
    8SAPS  H10R  987   3.874   0.583   6.143 -0.1541  0.1237  0.8753
    8SAPS  H10S  988   3.737   0.493   6.099 -0.3826 -1.5280  2.2765
    8SAPS  C211  989   3.911   0.393   6.018  0.6008 -0.2130 -0.0832
    8SAPS  H11R  990   3.942   0.291   6.046  3.3788  0.4336 -0.4407
    8SAPS  C212  991   3.922   0.439   5.888  0.0007  0.0970  0.5333
    8SAPS  H12R  992   3.986   0.379   5.821 -0.1706 -1.8817  2.0514
    8SAPS  C213  993   3.885   0.574   5.839  0.2624 -0.6624 -0.0581
    8SAPS  H13R  994   3.966   0.610   5.772 -2.2253  1.7641 -2.0126
    8SAPS  H13S  995   3.889   0.654   5.916  1.6061 -0.3710 -0.4060
    8SAPS  C214  996   3.756   0.587   5.759  0.6252 -0.1230  0.5731
    8SAPS  H14R  997   3.668   0.549   5.814  0.0134  0.7887  0.2489
    8SAPS  C215  998   3.738   0.620   5.630  0.2771  0.1891 -0.1265
    8SAPS  H15R  999   3.640   0.598   5.585 -0.6212  0.9128  1.3696
    8SAPS  C216 1000   3.837   0.667   5.532  0.2407 -0.1541 -0.9739
    8SAPS  H16R 1001   3.904   0.741   5.580 -1.1407  0.0569  0.7175
    8SAPS  H16S 1002   3.774   0.719   5.456 -2.9194 -2.2551  0.0315
    8SAPS  C217 1003   3.913   0.558   5.454  0.2449  0.1041 -0.1153
    8SAPS  H17R 1004   3.834   0.487   5.420 -0.1103  1.0984 -1.4357
    8SAPS  H17S 1005   3.983   0.509   5.526 -1.1239 -0.1772  1.0831
    8SAPS  C218 1006   3.987   0.604   5.330 -0.6478  0.8364  0.0536
    8SAPS  H18R 1007   4.077   0.646   5.380  1.6623 -2.8683 -0.6274
    8SAPS  H18S 1008   3.932   0.687   5.281 -0.4898  0.6873 -0.3802
    8SAPS  C219 1009   4.015   0.479   5.239  0.1133 -0.5189 -0.2299
    8SAPS  H19R 1010   3.919   0.450   5.192 -1.6128  1.0594  2.0507
    8SAPS  H19S 1011   4.034   0.397   5.311 -1.3084 -0.6550  0.0205
    8SAPS  C220 1012   4.125   0.491   5.134  0.1042 -0.1760  0.0913
    8SAPS  H20R 1013   4.147   0.393   5.088 -2.5854 -0.4135 -0.8493
    8SAPS  H20S 1014   4.214   0.540   5.179  0.4257 -0.7499  0.0894
    8SAPS  H20T 1015   4.084   0.555   5.053  0.2941 -3.1231 -2.4948
    8SAPS   C33 1016   4.821  -0.003   6.306 -1.0807 -0.6619  0.5651
    8SAPS   H3X 1017   4.787  -0.098   6.352  0.1003 -1.0230  0.7468
    8SAPS   H3Y 1018   4.925   0.011   6.343 -0.6444 -1.3592 -0.3523
    8SAPS   C34 1019   4.804  -0.022   6.149  0.7372 -0.4092 -0.2013
    8SAPS   H4X 1020   4.857  -0.113   6.113 -1.1036 -0.1810 -4.0833
    8SAPS   H4Y 1021   4.855   0.068   6.107 -0.8098  1.3193  1.3954
    8SAPS   C35 1022   4.657  -0.031   6.099 -0.4654  0.5721  0.6673
    8SAPS   H5X 1023   4.603   0.066   6.096 -0.0336  0.9097  2.4741
    8SAPS   H5Y 1024   4.603  -0.074   6.186 -0.2659 -0.5990  0.2322
    8SAPS   C36 1025   4.643  -0.113   5.968 -0.2480  0.2728 -0.7247
    8SAPS   H6X 1026   4.706  -0.203   5.982  0.2982  0.8226  0.5043
    8SAPS   H6Y 1027   4.690  -0.052   5.888  0.4204 -0.4675 -0.9117
    8SAPS   C37 1028   4.498  -0.164   5.943  0.7104 -0.1841 -0.5661
    8SAPS   H7X 1029   4.426  -0.089   5.983  0.3316 -1.8620  2.2362
    8SAPS   H7Y 1030   4.471  -0.247   6.012  0.3089 -0.2476 -0.7981
    8SAPS   C38 1031   4.477  -0.209   5.798 -0.5275 -0.4959  0.1093
    8SAPS   H8X 1032   4.373  -0.247   5.791 -0.0817 -1.6969 -0.2026
    8SAPS   H8Y 1033   4.546  -0.296   5.789 -0.0592 -0.5384  3.1701
    8SAPS   C39 1034   4.506  -0.092   5.705 -0.0386 -0.3567  0.3764
    8SAPS   H9X 1035   4.613  -0.092   5.676  0.0774 -0.4126  0.7958
    8SAPS   H9Y 1036   4.485   0.000   5.764 -1.1832 -0.8767  0.8209
    8SAPS  C310 1037   4.420  -0.093   5.575 -0.0774 -0.8285 -0.1029
    8SAPS  H10X 1038   4.463  -0.015   5.508 -2.1838  0.3949 -0.1288
    8SAPS  H10Y 1039   4.311  -0.075   5.591 -0.5844 -1.5902 -2.3158
    8SAPS  C311 1040   4.430  -0.225   5.498 -0.8746 -0.0351 -0.4962
    8SAPS  H11X 1041   4.428  -0.306   5.574  1.8860 -0.7278 -1.0422
    8SAPS  H11Y 1042   4.530  -0.243   5.454  0.4936 -0.8597  2.6233
    8SAPS  C312 1043   4.313  -0.250   5.407 -1.3182  0.0916 -0.5375
    8SAPS  H12X 1044   4.220  -0.220   5.459 -1.0388  2.6210 -1.3630
    8SAPS  H12Y 1045   4.313  -0.350   5.357 -1.1652 -1.1689  1.8717
    8SAPS  C313 1046   4.291  -0.145   5.289 -0.2475 -0.4373  0.2162
    8SAPS  H13X 1047   4.272  -0.039   5.317  0.0010 -0.1459 -0.6749
    8SAPS  H13Y 1048   4.200  -0.181   5.236  0.2401  1.2209 -1.8726
    8SAPS  C314 1049   4.404  -0.156   5.182 -0.0090 -0.4984 -0.4511
    8SAPS  H14X 1050   4.455  -0.254   5.198  1.6589  0.8678  4.0553
    8SAPS  H14Y 1051   4.483  -0.079   5.196 -1.8183  1.2241  0.8101
    8SAPS  C315 1052   4.352  -0.138   5.039 -0.1973 -0.3946  0.3534
    8SAPS  H15X 1053   4.288  -0.048   5.032  0.8571  0.3360  0.0385
    8SAPS  H15Y 1054   4.275  -0.214   5.012  0.2877 -0.1708 -1.8432
    8SAPS  C316 1055   4.458  -0.133   4.927  0.3218 -0.3600 -0.3975
    8SAPS  H16X 1056   4.546  -0.082   4.971  0.4345 -0.7842 -0.1341
    8SAPS  H16Y 1057   4.432  -0.081   4.832  1.2781 -1.6450 -1.3968
    8SAPS  C317 1058   4.523  -0.270   4.887 -0.1523  0.0369  0.6675
    8SAPS  H17X 1059   4.461  -0.317   4.808  2.1113  0.5606 -1.5517
    8SAPS  H17Y 1060   4.526  -0.330   4.981 -2.0179 -0.4889  0.4394
    8SAPS  C318 1061   4.662  -0.245   4.822  0.6220 -0.0502 -0.4493
    8SAPS  H18X 1062   4.720  -0.172   4.883 -1.0224  1.0990 -0.2186
    8SAPS  H18Y 1063   4.647  -0.195   4.724 -0.1233 -1.0008 -0.8352
    8SAPS  H18Z 1064   4.734  -0.329   4.808  1.8098  0.9923 -0.7088
    9SAPS     N 1065   0.936   5.082   7.168 -0.3467  0.4165  0.4775
    9SAPS   HN1 1066   1.030   5.098   7.126  0.1657 -1.4466  0.7895
    9SAPS   HN2 1067   0.887   5.053   7.081 -1.2592  1.8851  0.4744
    9SAPS   HN3 1068   0.886   5.170   7.190 -1.4347 -0.6181  2.4348
    9SAPS   C12 1069   0.931   4.977   7.265  0.4497 -0.2885 -0.2613
    9SAPS  H12A 1070   0.993   5.003   7.349 -0.6601 -0.5619  0.6759
    9SAPS   C13 1071   0.793   4.946   7.317 -0.3376  0.0005 -0.9288
    9SAPS  O13A 1072   0.702   5.035   7.294 -0.2504 -0.6409 -0.1588
    9SAPS  O13B 1073   0.774   4.857   7.403 -0.4294 -0.0691  0.2778
    9SAPS   C11 1074   0.994   4.848   7.215  0.4442 -0.8583  0.4065
    9SAPS  H11A 1075   0.935   4.814   7.128 -2.5058  0.2069  1.8446
    9SAPS  H11B 1076   1.005   4.776   7.299  1.7250 -0.0088  1.0119
    9SAPS     P 1077   1.221   4.773   7.108 -0.2390  0.0741  0.0390
    9SAPS   O13 1078   1.354   4.840   7.091  0.1878  0.2350  0.2263
    9SAPS   O14 1079   1.229   4.650   7.197  0.2880 -0.2450  0.3941
    9SAPS   O12 1080   1.126   4.876   7.167  0.3224 -0.0475 -0.1047
    9SAPS   O11 1081   1.166   4.732   6.968  0.6100  0.3839 -0.1901
    9SAPS    C1 1082   1.144   4.821   6.861  0.4697 -0.2059  0.7190
    9SAPS    HA 1083   1.056   4.784   6.803 -0.4443 -0.6297  2.3147
    9SAPS    HB 1084   1.127   4.924   6.899  1.7637  0.1609  0.3523
    9SAPS    C2 1085   1.266   4.823   6.767  0.2364  0.0789  0.3665
    9SAPS    HS 1086   1.367   4.831   6.813  0.8199 -2.5541 -0.3049
    9SAPS   O21 1087   1.238   4.914   6.663  0.7583 -0.2421 -0.8591
    9SAPS   C21 1088   1.279   5.046   6.676  0.6874  0.1995  0.5548
    9SAPS   O22 1089   1.344   5.094   6.767  0.2905 -0.4441  0.3452
    9SAPS   C22 1090   1.221   5.127   6.562 -1.3190  0.1143 -0.4709
    9SAPS   H2R 1091   1.131   5.082   6.515 -0.1386 -0.5861 -2.2000
    9SAPS   H2S 1092   1.193   5.223   6.609  0.9596 -0.5907  2.6450
    9SAPS    C3 1093   1.286   4.679   6.703  0.3041 -0.0498  0.2330
    9SAPS    HX 1094   1.192   4.667   6.645 -1.2205  0.2072  2.5126
    9SAPS    HY 1095   1.285   4.602   6.783 -2.1276  0.7582  1.0740
    9SAPS   O31 1096   1.406   4.676   6.624 -0.0025  0.0881  0.0122
    9SAPS   C31 1097   1.516   4.626   6.682 -0.3625  0.5601  0.0919
    9SAPS   O32 1098   1.532   4.601   6.802 -0.0841 -0.0435 -0.0081
    9SAPS   C32 1099   1.624   4.602   6.573  0.7884  0.7762 -0.3814
    9SAPS   H2X 1100   1.565   4.581   6.481  0.1458  0.5044  0.0826
    9SAPS   H2Y 1101   1.685   4.512   6.596  1.7115  1.5094  0.0983
    9SAPS   C23 1102   1.329   5.161   6.457  0.8723  0.4289 -0.7401
    9SAPS   H3R 1103   1.349   5.065   6.404  3.9343  1.1854 -1.0951
    9SAPS   H3S 1104   1.426   5.187   6.505  0.2006  1.0471  0.3340
    9SAPS   C24 1105   1.279   5.265   6.354  0.3463  0.0279 -0.3081
    9SAPS   H4R 1106   1.171   5.246   6.340 -0.0433  2.0426 -0.2608
    9SAPS   H4S 1107   1.326   5.255   6.254 -0.3931  0.2536 -0.6854
    9SAPS   C25 1108   1.297   5.401   6.398  0.4597 -0.3940 -0.0262
    9SAPS   H5R 1109   1.250   5.423   6.495  0.5519 -1.6624  0.3272
    9SAPS   C26 1110   1.369   5.491   6.330  0.5886  0.2013 -0.8373
    9SAPS   H6R 1111   1.369   5.592   6.374  3.2423  0.5923 -1.5867
    9SAPS   C27 1112   1.434   5.473   6.193 -0.4579  0.3652  0.5071
    9SAPS   H7R 1113   1.484   5.374   6.187 -1.3053 -0.0585  0.2010
    9SAPS   H7S 1114   1.515   5.548   6.184  0.2047 -0.5145 -1.1133
    9SAPS   C28 1115   1.328   5.493   6.081 -0.2988 -0.5472 -0.9248
    9SAPS   H8R 1116   1.229   5.515   6.125  0.5357 -0.8055  1.2271
    9SAPS   C29 1117   1.350   5.527   5.955  0.0814  0.1048  0.3812
    9SAPS   H9R 1118   1.262   5.536   5.889  1.0020  0.1913 -0.8549
    9SAPS  C210 1119   1.479   5.508   5.884 -0.5731 -0.4855 -0.1019
    9SAPS  H10R 1120   1.464   5.461   5.785  1.9155  2.0053 -1.8213
    9SAPS  H10S 1121   1.557   5.446   5.934  1.0961  1.7038  0.1685
    9SAPS  C211 1122   1.542   5.644   5.854  0.0733  0.0314  0.2968
    9SAPS  H11R 1123   1.555   5.712   5.940  3.0377 -0.0209 -0.0217
    9SAPS  C212 1124   1.581   5.690   5.735  0.8079  0.2561  0.1639
    9SAPS  H12R 1125   1.617   5.794   5.739  1.8448 -0.0430 -0.8329
    9SAPS  C213 1126   1.580   5.626   5.593  0.2089  0.2200 -0.3393
    9SAPS  H13R 1127   1.492   5.677   5.549  0.1128 -0.4749 -0.9631
    9SAPS  H13S 1128   1.573   5.516   5.605 -0.0485 -0.0397 -2.4630
    9SAPS  C214 1129   1.702   5.655   5.507 -0.2240 -0.3996  0.3883
    9SAPS  H14R 1130   1.796   5.607   5.537 -0.6170 -0.8789  0.8727
    9SAPS  C215 1131   1.695   5.731   5.392  0.5726  0.2142  0.1179
    9SAPS  H15R 1132   1.773   5.739   5.314 -1.1733 -1.4354 -1.9144
    9SAPS  C216 1133   1.570   5.799   5.337 -0.1531 -0.5664  0.7369
    9SAPS  H16R 1134   1.547   5.886   5.401 -0.5180 -0.2611  0.2058
    9SAPS  H16S 1135   1.476   5.740   5.321 -0.5586  0.4062 -0.7094
    9SAPS  C217 1136   1.587   5.855   5.190  0.1575 -0.4398 -0.2459
    9SAPS  H17R 1137   1.489   5.868   5.140 -0.4652  1.4438  1.3509
    9SAPS  H17S 1138   1.658   5.792   5.132  1.5621  0.5632  0.3280
    9SAPS  C218 1139   1.645   5.997   5.186  0.7129 -0.4402 -0.2421
    9SAPS  H18R 1140   1.678   6.019   5.082 -0.7418 -1.8709 -1.0395
    9SAPS  H18S 1141   1.732   5.998   5.255 -0.1184  0.8503  0.8465
    9SAPS  C219 1142   1.544   6.103   5.238 -0.2603 -0.7150 -0.1076
    9SAPS  H19R 1143   1.598   6.194   5.270  1.2433 -0.9467 -1.8315
    9SAPS  H19S 1144   1.491   6.082   5.334 -0.1021 -1.1295 -0.1067
    9SAPS  C220 1145   1.441   6.136   5.128  0.4722  0.0817 -0.2716
    9SAPS  H20R 1146   1.484   6.188   5.039  1.5615  1.8483  1.2164
    9SAPS  H20S 1147   1.366   6.203   5.174  1.2628  2.5595 -2.3175
    9SAPS  H20T 1148   1.391   6.042   5.099  0.3058  0.0143  0.2346
    9SAPS   C33 1149   1.720   4.721   6.549 -0.2538  0.4579 -0.7816
    9SAPS   H3X 1150   1.786   4.730   6.638  1.0138  1.8193 -1.8168
    9SAPS   H3Y 1151   1.665   4.818   6.546 -3.5767 -1.2163  1.1305
    9SAPS   C34 1152   1.808   4.697   6.428  0.1160  1.2666  0.1996
    9SAPS   H4X 1153   1.855   4.596   6.430 -0.4440  1.0192  1.2168
    9SAPS   H4Y 1154   1.897   4.762   6.440  1.4541 -0.2265 -1.0796
    9SAPS   C35 1155   1.737   4.724   6.295 -0.0679  0.3836  0.7427
    9SAPS   H5X 1156   1.692   4.825   6.294 -1.4434 -0.2047 -0.7271
    9SAPS   H5Y 1157   1.652   4.656   6.275 -1.8176  2.9526 -1.0596
    9SAPS   C36 1158   1.840   4.722   6.174  0.3386 -0.3623  0.1387
    9SAPS   H6X 1159   1.877   4.617   6.168 -0.2917 -0.6592  1.1712
    9SAPS   H6Y 1160   1.917   4.798   6.200 -0.7575  0.6672  0.4675
    9SAPS   C37 1161   1.780   4.745   6.038 -0.4604  0.3710  0.0540
    9SAPS   H7X 1162   1.747   4.850   6.021 -1.1547 -0.1414 -2.0756
    9SAPS   H7Y 1163   1.694   4.676   6.036 -0.1733  0.0027  0.3277
    9SAPS   C38 1164   1.886   4.711   5.922 -0.3700 -0.1503 -0.7902
    9SAPS   H8X 1165   1.912   4.604   5.934 -0.7629 -0.1999 -0.3389
    9SAPS   H8Y 1166   1.986   4.759   5.932 -0.2858  0.0285 -2.2332
    9SAPS   C39 1167   1.834   4.735   5.788  0.0190 -0.2933  0.3682
    9SAPS   H9X 1168   1.788   4.834   5.807 -3.0288 -1.9442  2.4075
    9SAPS   H9Y 1169   1.752   4.666   5.757 -0.4681  0.4592 -0.0304
    9SAPS  C310 1170   1.936   4.745   5.676  0.5142 -0.3451 -0.1580
    9SAPS  H10X 1171   1.978   4.642   5.668 -0.5642 -1.1191  2.6405
    9SAPS  H10Y 1172   2.020   4.810   5.707 -1.2550  0.9160  2.4357
    9SAPS  C311 1173   1.871   4.800   5.547  0.3039  0.6854  0.7725
    9SAPS  H11X 1174   1.853   4.910   5.553  1.8558  1.1570 -1.6023
    9SAPS  H11Y 1175   1.770   4.754   5.534 -1.1568  3.9805 -1.1350
    9SAPS  C312 1176   1.944   4.777   5.415 -0.6156 -0.3705 -0.6385
    9SAPS  H12X 1177   1.946   4.670   5.385 -1.0595  0.3983 -3.7951
    9SAPS  H12Y 1178   2.047   4.819   5.419 -1.8475  2.9241  3.4540
    9SAPS  C313 1179   1.864   4.839   5.295  0.0208  0.0360 -0.0966
    9SAPS  H13X 1180   1.864   4.949   5.311  1.7116 -0.1548  1.6407
    9SAPS  H13Y 1181   1.761   4.798   5.305  0.7001 -2.0655 -1.0782
    9SAPS  C314 1182   1.922   4.807   5.160 -0.6463 -0.3163  0.5395
    9SAPS  H14X 1183   1.973   4.709   5.170 -0.6843 -0.4381 -0.3870
    9SAPS  H14Y 1184   2.003   4.882   5.144 -0.5106  0.2241  3.2428
    9SAPS  C315 1185   1.818   4.821   5.048 -0.4980 -0.4972 -1.1717
    9SAPS  H15X 1186   1.728   4.760   5.071  0.2538 -2.0011 -2.0034
    9SAPS  H15Y 1187   1.860   4.773   4.957 -0.4833 -4.1422  0.5707
    9SAPS  C316 1188   1.786   4.972   5.016 -0.2388 -0.1157 -0.2603
    9SAPS  H16X 1189   1.881   5.028   5.002 -0.0622 -0.4977 -0.6072
    9SAPS  H16Y 1190   1.742   5.025   5.103 -1.0805  0.3559 -0.9511
    9SAPS  C317 1191   1.706   4.993   4.885  0.3363  0.1052 -0.3197
    9SAPS  H17X 1192   1.613   4.934   4.897 -1.5301  2.8182 -0.6026
    9SAPS  H17Y 1193   1.763   4.939   4.807  0.8681 -0.4568  0.4385
    9SAPS  C318 1194   1.664   5.133   4.848 -0.5348  0.0030 -0.1733
    9SAPS  H18X 1195   1.582   5.172   4.912 -0.9261  0.1118 -0.7414
    9SAPS  H18Y 1196   1.652   5.156   4.740 -0.8090  3.3235  0.4584
    9SAPS  H18Z 1197   1.745   5.203   4.879  0.2752 -2.3937  3.9590
   10SAPS     N 1198   3.694   4.886   7.422  0.0095 -0.1417  0.1911
   10SAPS   HN1 1199   3.753   4.814   7.469  1.4601  0.8567 -0.0227
   10SAPS   HN2 1200   3.731   4.981   7.441  0.2524  0.2103 -1.8406
   10SAPS   HN3 1201   3.600   4.877   7.464 -0.5115 -0.1101 -0.9378
   10SAPS   C12 1202   3.684   4.861   7.274  0.3253  1.0689 -0.5673
   10SAPS  H12A 1203   3.781   4.883   7.232  0.4269 -0.2071 -1.0294
   10SAPS   C13 1204   3.655   4.715   7.250  0.3593  0.2135 -0.2356
   10SAPS  O13A 1205   3.605   4.645   7.342 -0.5224 -0.6691 -0.0446
   10SAPS  O13B 1206   3.650   4.678   7.130 -0.6888 -0.1380 -0.5367
   10SAPS   C11 1207   3.579   4.953   7.210  0.3862  0.4142 -0.2575
   10SAPS  H11A 1208   3.477   4.933   7.250  0.9311 -1.4514  0.3180
   10SAPS  H11B 1209   3.579   4.929   7.102  0.4433  2.1735 -0.6693
   10SAPS     P 1210   3.577   5.209   7.136  0.3635  0.3049 -0.2412
   10SAPS   O13 1211   3.436   5.202   7.098 -0.1573  0.0507  0.2529
   10SAPS   O14 1212   3.619   5.339   7.201  0.2280  0.1482 -0.1395
   10SAPS   O12 1213   3.616   5.089   7.238  0.5250  0.7115  0.4320
   10SAPS   O11 1214   3.659   5.180   7.003  0.6177 -0.4670 -0.3481
   10SAPS    C1 1215   3.797   5.149   7.006  0.7136  0.1924 -0.6093
   10SAPS    HA 1216   3.864   5.228   7.046 -0.3581  0.8697 -0.1221
   10SAPS    HB 1217   3.824   5.063   7.071 -1.4228  1.1115  1.6124
   10SAPS    C2 1218   3.832   5.114   6.861  0.7034  0.3367  0.9976
   10SAPS    HS 1219   3.940   5.095   6.848  1.0406  1.7495  1.5693
   10SAPS   O21 1220   3.802   5.229   6.772  0.1692 -0.2554 -0.1172
   10SAPS   C21 1221   3.876   5.332   6.788  0.1751 -0.3368  0.3014
   10SAPS   O22 1222   3.973   5.338   6.860 -0.8562  0.3562  0.7482
   10SAPS   C22 1223   3.834   5.452   6.699  0.8273  0.0938  0.0992
   10SAPS   H2R 1224   3.726   5.431   6.688  0.5987  0.5443  1.2897
   10SAPS   H2S 1225   3.848   5.538   6.768  4.1593 -0.9062  0.8734
   10SAPS    C3 1226   3.761   4.985   6.810  0.5823 -0.6471 -0.4744
   10SAPS    HX 1227   3.657   4.998   6.847  0.4437 -1.0431 -0.7168
   10SAPS    HY 1228   3.804   4.898   6.865  0.2447  0.0666  0.9650
   10SAPS   O31 1229   3.762   4.967   6.667  0.0053  0.0900 -0.0014
   10SAPS   C31 1230   3.874   4.942   6.599 -0.6275 -0.0668  0.4587
   10SAPS   O32 1231   3.983   4.935   6.651 -0.5321  0.0792  0.5109
   10SAPS   C32 1232   3.844   4.924   6.449 -0.0972  0.0334  0.1988
   10SAPS   H2X 1233   3.740   4.959   6.431 -0.5201 -1.2023  0.1260
   10SAPS   H2Y 1234   3.850   4.816   6.422 -1.8043 -0.4394  1.5263
   10SAPS   C23 1235   3.919   5.478   6.577  0.0909  0.4741  0.0800
   10SAPS   H3R 1236   3.898   5.398   6.503  0.6276  1.7733 -1.5350
   10SAPS   H3S 1237   4.025   5.487   6.608 -0.0736  0.0754  0.7924
   10SAPS   C24 1238   3.891   5.615   6.507  0.2085 -0.1216 -0.0580
   10SAPS   H4R 1239   3.876   5.698   6.579 -2.4279  2.4786 -3.2789
   10SAPS   H4S 1240   3.789   5.609   6.464 -1.2456  2.0278  2.7472
   10SAPS   C25 1241   4.002   5.653   6.412 -0.7451  0.1236  0.6745
   10SAPS   H5R 1242   4.092   5.684   6.466  0.0655 -1.6505  0.4004
   10SAPS   C26 1243   3.999   5.676   6.278 -0.5742  0.0262 -0.1299
   10SAPS   H6R 1244   4.097   5.700   6.233  0.5534 -2.6105  0.7681
   10SAPS   C27 1245   3.880   5.637   6.200  0.2012 -0.5091 -0.1085
   10SAPS   H7R 1246   3.915   5.643   6.094  2.5247  1.7455  0.6837
   10SAPS   H7S 1247   3.805   5.716   6.223  2.4633  1.8876 -0.4565
   10SAPS   C28 1248   3.817   5.500   6.204 -0.2363  0.2291  0.0831
   10SAPS   H8R 1249   3.798   5.470   6.308 -0.2983  1.0629  0.3231
   10SAPS   C29 1250   3.780   5.414   6.103  0.1150  0.1926 -0.1339
   10SAPS   H9R 1251   3.733   5.317   6.126 -0.3925  0.1419 -1.2869
   10SAPS  C210 1252   3.791   5.441   5.951  0.4888 -0.0534  0.6655
   10SAPS  H10R 1253   3.892   5.408   5.920  0.1789 -0.5416  0.1487
   10SAPS  H10S 1254   3.802   5.551   5.937  0.9026  0.3410  3.4037
   10SAPS  C211 1255   3.696   5.374   5.867  0.1128  0.5155 -1.2129
   10SAPS  H11R 1256   3.629   5.298   5.911  1.7327 -0.2595  0.0346
   10SAPS  C212 1257   3.679   5.404   5.737  0.2831  0.7973  0.3076
   10SAPS  H12R 1258   3.593   5.356   5.687  1.3688  2.0305 -2.9863
   10SAPS  C213 1259   3.748   5.514   5.660  0.5114  0.1562 -0.1844
   10SAPS  H13R 1260   3.827   5.563   5.721  1.1633 -1.2767  0.1755
   10SAPS  H13S 1261   3.676   5.592   5.627  0.7543  1.0298  1.2234
   10SAPS  C214 1262   3.814   5.458   5.542 -0.2065 -0.0294 -0.3698
   10SAPS  H14R 1263   3.924   5.457   5.553  0.0917  0.1217 -2.6916
   10SAPS  C215 1264   3.758   5.452   5.415  0.2246  0.0598 -0.2411
   10SAPS  H15R 1265   3.812   5.399   5.335 -0.6069 -0.0758 -0.7261
   10SAPS  C216 1266   3.611   5.475   5.390  0.4396 -0.4548 -0.0476
   10SAPS  H16R 1267   3.592   5.538   5.300 -0.2663 -0.7487 -0.1146
   10SAPS  H16S 1268   3.558   5.533   5.469  0.7924 -0.4535  0.1870
   10SAPS  C217 1269   3.542   5.341   5.355 -0.2789 -0.3505  0.7360
   10SAPS  H17R 1270   3.566   5.271   5.438  0.7523 -0.6113  0.2293
   10SAPS  H17S 1271   3.587   5.301   5.262  0.3136  1.9220 -0.0026
   10SAPS  C218 1272   3.388   5.364   5.328 -0.5490  0.4431  0.7264
   10SAPS  H18R 1273   3.369   5.431   5.242 -0.6016  0.5244  0.8020
   10SAPS  H18S 1274   3.350   5.401   5.425  1.1654 -1.4791  2.2249
   10SAPS  C219 1275   3.311   5.236   5.304  0.1529 -0.5094 -0.6632
   10SAPS  H19R 1276   3.203   5.257   5.290  0.2866 -0.1547 -1.1786
   10SAPS  H19S 1277   3.315   5.172   5.395  1.4866  0.4829  0.0127
   10SAPS  C220 1278   3.363   5.147   5.186  0.4011  0.0461 -0.3832
   10SAPS  H20R 1279   3.463   5.123   5.228 -0.0152 -0.8735  0.1150
   10SAPS  H20S 1280   3.379   5.200   5.089  1.5231  1.0189  0.3128
   10SAPS  H20T 1281   3.300   5.057   5.167  2.2927 -1.2558 -0.7232
   10SAPS   C33 1282   3.943   5.004   6.371  0.1905  0.0132 -0.4472
   10SAPS   H3X 1283   4.050   4.979   6.389 -0.0692 -0.2841  0.7596
   10SAPS   H3Y 1284   3.928   5.111   6.396 -0.2481 -0.3456  0.8549
   10SAPS   C34 1285   3.915   5.003   6.217 -0.5686  0.2339  0.2547
   10SAPS   H4X 1286   3.814   5.042   6.193 -0.8443 -0.6475 -0.0649
   10SAPS   H4Y 1287   3.919   4.896   6.189  2.5538 -0.0712  1.4017
   10SAPS   C35 1288   4.018   5.068   6.133  0.5055 -0.0793 -0.3495
   10SAPS   H5X 1289   4.122   5.048   6.165  0.4967  1.2663  0.6141
   10SAPS   H5Y 1290   4.004   5.177   6.150  1.6548 -0.1602  1.3202
   10SAPS   C36 1291   3.996   5.040   5.989  0.1982  0.0739 -0.2727
   10SAPS   H6X 1292   3.896   5.080   5.960  0.1438  1.3903  1.5242
   10SAPS   H6Y 1293   4.013   4.933   5.969  0.4999 -0.1709  1.1516
   10SAPS   C37 1294   4.093   5.124   5.899  0.1694 -0.3032  0.9175
   10SAPS   H7X 1295   4.194   5.097   5.936 -0.8624 -2.0416  2.6253
   10SAPS   H7Y 1296   4.076   5.233   5.911  2.8638 -0.0880  4.4810
   10SAPS   C38 1297   4.092   5.071   5.750  0.4580 -0.0400 -0.2671
   10SAPS   H8X 1298   4.114   4.963   5.759 -0.7659 -0.2182  0.9641
   10SAPS   H8Y 1299   4.175   5.124   5.698 -0.6214  2.9058  0.7657
   10SAPS   C39 1300   3.958   5.085   5.688  0.0849 -0.3115 -0.2698
   10SAPS   H9X 1301   3.913   5.186   5.702 -1.1772 -1.1608  2.4319
   10SAPS   H9Y 1302   3.897   5.009   5.741  0.1222  0.3087  0.6777
   10SAPS  C310 1303   3.959   5.047   5.540  0.6427  0.0728  0.4416
   10SAPS  H10X 1304   3.993   4.941   5.542 -1.5622 -0.6917  1.2242
   10SAPS  H10Y 1305   4.012   5.121   5.476 -0.3002  0.0406 -0.4183
   10SAPS  C311 1306   3.815   5.036   5.483  0.5635 -0.1255  0.1751
   10SAPS  H11X 1307   3.746   5.119   5.513 -0.4991 -1.1562  0.6634
   10SAPS  H11Y 1308   3.781   4.945   5.537  0.5035  0.1617  0.6274
   10SAPS  C312 1309   3.800   5.001   5.328 -0.4313 -0.4320 -0.3219
   10SAPS  H12X 1310   3.693   5.000   5.295 -0.1450  0.3093 -1.3047
   10SAPS  H12Y 1311   3.847   4.902   5.312  1.7365  0.1286  1.9837
   10SAPS  C313 1312   3.865   5.108   5.238  0.4356 -0.1331 -0.7932
   10SAPS  H13X 1313   3.969   5.107   5.276 -0.0833 -0.9713  0.6847
   10SAPS  H13Y 1314   3.819   5.205   5.269 -0.9411 -0.2985 -2.1739
   10SAPS  C314 1315   3.853   5.084   5.084  0.2465  0.2766 -0.3506
   10SAPS  H14X 1316   3.878   4.976   5.073  2.2071  0.5734  0.6513
   10SAPS  H14Y 1317   3.940   5.144   5.049  0.1362  0.5727 -0.1179
   10SAPS  C315 1318   3.725   5.122   5.024  0.3690  0.1592  0.0160
   10SAPS  H15X 1319   3.700   5.230   5.029 -0.3762  0.1434 -2.1415
   10SAPS  H15Y 1320   3.643   5.059   5.065  0.1781  1.0336  1.0245
   10SAPS  C316 1321   3.716   5.092   4.874  0.3656  0.0610 -0.2686
   10SAPS  H16X 1322   3.610   5.104   4.842 -0.5977  0.0322  2.6003
   10SAPS  H16Y 1323   3.745   4.985   4.865  2.0224  0.2653  1.9171
   10SAPS  C317 1324   3.820   5.166   4.791  0.1630 -0.1792  1.2247
   10SAPS  H17X 1325   3.911   5.101   4.797 -0.2147 -0.5668  3.3095
   10SAPS  H17Y 1326   3.842   5.263   4.840 -0.3255  0.9864 -0.7514
   10SAPS  C318 1327   3.775   5.203   4.649 -0.3651 -0.5153  0.3333
   10SAPS  H18X 1328   3.677   5.255   4.651  0.8203  1.9113 -0.4573
   10SAPS  H18Y 1329   3.776   5.117   4.579  1.8574  0.1060 -0.4895
   10SAPS  H18Z 1330   3.855   5.275   4.622 -0.6853 -0.9485 -1.9607
   11SAPS     N 1331   0.556   4.096   2.094  0.3518 -0.0236  0.3189
   11SAPS   HN1 1332   0.583   3.996   2.092  0.8218  0.0751 -2.9248
   11SAPS   HN2 1333   0.463   4.101   2.047 -0.0956  2.6221  1.2687
   11SAPS   HN3 1334   0.620   4.142   2.027 -0.5056  0.4668 -0.1842
   11SAPS   C12 1335   0.554   4.171   2.224  0.0535 -0.5512  0.5499
   11SAPS  H12A 1336   0.656   4.155   2.256  0.9620 -0.5938 -2.0730
   11SAPS   C13 1337   0.541   4.322   2.202  0.9436  0.2756  0.5537
   11SAPS  O13A 1338   0.548   4.368   2.087  0.2746  0.6737  0.0853
   11SAPS  O13B 1339   0.554   4.393   2.302  0.9458 -0.3548 -0.5890
   11SAPS   C11 1340   0.446   4.103   2.311  0.1283 -0.1931  0.0410
   11SAPS  H11A 1341   0.447   4.155   2.410  1.2234 -1.0346  0.4905
   11SAPS  H11B 1342   0.467   3.998   2.339  0.0183 -0.1390  0.3347
   11SAPS     P 1343   0.186   4.173   2.289 -0.3481  0.3801 -0.0495
   11SAPS   O13 1344   0.193   4.316   2.239 -0.6726 -0.3549  0.2248
   11SAPS   O14 1345   0.077   4.084   2.244 -0.1359 -0.2558  0.8955
   11SAPS   O12 1346   0.322   4.106   2.244  0.1912  0.2899  0.5258
   11SAPS   O11 1347   0.198   4.177   2.448  0.2671  0.7031  0.3521
   11SAPS    C1 1348   0.189   4.051   2.521  0.6519 -0.7770  0.0495
   11SAPS    HA 1349   0.082   4.028   2.540  0.0930  0.7563 -1.0130
   11SAPS    HB 1350   0.237   3.969   2.463  1.4760 -0.4510  0.2562
   11SAPS    C2 1351   0.265   4.053   2.654  0.0486 -0.0077  0.4146
   11SAPS    HS 1352   0.371   4.073   2.629  0.0724 -0.3088  0.2605
   11SAPS   O21 1353   0.240   3.923   2.723 -0.0927  0.1368  0.4043
   11SAPS   C21 1354   0.322   3.825   2.686 -0.5721  0.5231  0.2836
   11SAPS   O22 1355   0.403   3.831   2.592 -0.2504 -0.6077  0.2475
   11SAPS   C22 1356   0.292   3.703   2.771 -0.0084  0.2616 -0.0638
   11SAPS   H2R 1357   0.184   3.694   2.794  0.2659 -0.9382  0.8517
   11SAPS   H2S 1358   0.317   3.619   2.702  3.5846 -0.5705  1.9847
   11SAPS    C3 1359   0.229   4.168   2.755 -0.2183 -0.6951  0.1423
   11SAPS    HX 1360   0.230   4.270   2.711  0.6259 -0.7746 -0.0373
   11SAPS    HY 1361   0.313   4.165   2.827  2.1906  0.7699 -2.4238
   11SAPS   O31 1362   0.104   4.144   2.820 -0.1029  0.2023  0.7781
   11SAPS   C31 1363   0.098   4.220   2.938  0.9081 -0.0674 -0.9041
   11SAPS   O32 1364   0.161   4.323   2.965 -0.0405 -0.0205 -0.2135
   11SAPS   C32 1365  -0.003   4.162   3.037  0.3770  0.3320 -0.8550
   11SAPS   H2X 1366  -0.072   4.087   2.995  0.9953 -1.1195  0.5950
   11SAPS   H2Y 1367  -0.071   4.245   3.067 -0.3403 -0.6057  0.2055
   11SAPS   C23 1368   0.383   3.684   2.892  0.6862 -0.0267 -0.4965
   11SAPS   H3R 1369   0.489   3.707   2.868  1.0457  0.5344  1.4304
   11SAPS   H3S 1370   0.371   3.581   2.932 -1.0264  1.7293  4.1789
   11SAPS   C24 1371   0.357   3.776   3.004  0.4773 -0.2281 -0.8553
   11SAPS   H4R 1372   0.353   3.877   2.959  1.1268  0.5500  0.7601
   11SAPS   H4S 1373   0.440   3.773   3.078  1.5315  2.4637 -1.8099
   11SAPS   C25 1374   0.233   3.744   3.073  0.4151  0.6884 -1.0288
   11SAPS   H5R 1375   0.145   3.799   3.036  0.4320  2.1452  0.9040
   11SAPS   C26 1376   0.222   3.681   3.194  0.2804 -0.4243 -0.8109
   11SAPS   H6R 1377   0.124   3.673   3.243  0.4319 -0.3456 -0.4896
   11SAPS   C27 1378   0.342   3.612   3.264 -0.2291 -0.1229  0.3089
   11SAPS   H7R 1379   0.442   3.633   3.220  0.9724 -1.4230  2.2594
   11SAPS   H7S 1380   0.329   3.502   3.252  2.4700 -0.4861  0.1096
   11SAPS   C28 1381   0.336   3.642   3.410  0.2837  0.1115  0.1063
   11SAPS   H8R 1382   0.258   3.583   3.461  0.7729  0.1217  0.8691
   11SAPS   C29 1383   0.417   3.724   3.480  0.0293 -0.6983 -0.1805
   11SAPS   H9R 1384   0.393   3.735   3.587  1.9864  1.1347  0.1513
   11SAPS  C210 1385   0.520   3.821   3.421 -0.5520  0.3180 -0.4205
   11SAPS  H10R 1386   0.531   3.809   3.311  1.5709 -2.9431  0.0254
   11SAPS  H10S 1387   0.623   3.789   3.446 -0.4261  1.0843  0.0634
   11SAPS  C211 1388   0.505   3.970   3.457 -0.4646  0.4644  0.4454
   11SAPS  H11R 1389   0.437   4.028   3.393  0.4761  1.5418  0.3850
   11SAPS  C212 1390   0.563   4.036   3.557 -0.3544  0.2078  0.5491
   11SAPS  H12R 1391   0.549   4.143   3.578 -0.0869 -0.1168  2.5453
   11SAPS  C213 1392   0.659   3.969   3.654  0.1795  0.5108  0.5495
   11SAPS  H13R 1393   0.747   3.932   3.598 -0.3610  0.5336 -0.3274
   11SAPS  H13S 1394   0.606   3.881   3.696  0.6204 -0.6246 -1.1544
   11SAPS  C214 1395   0.715   4.050   3.771 -0.0050 -0.0755  0.2748
   11SAPS  H14R 1396   0.785   4.129   3.739  1.4627 -2.4516 -2.7870
   11SAPS  C215 1397   0.677   4.028   3.903 -0.5280  0.8726  0.0078
   11SAPS  H15R 1398   0.716   4.089   3.986  0.7571  0.2688 -0.1189
   11SAPS  C216 1399   0.592   3.907   3.943 -0.3395 -0.4100 -0.0053
   11SAPS  H16R 1400   0.515   3.858   3.880 -0.3586 -0.0377 -0.2708
   11SAPS  H16S 1401   0.533   3.949   4.027 -0.3975 -1.9085  0.7357
   11SAPS  C217 1402   0.689   3.798   4.005  0.4228 -1.0647 -0.3802
   11SAPS  H17R 1403   0.637   3.732   4.078 -1.5076  2.6450  1.9458
   11SAPS  H17S 1404   0.760   3.860   4.063 -0.8129  0.4928 -0.4677
   11SAPS  C218 1405   0.767   3.711   3.909 -0.3014  0.3220 -0.9892
   11SAPS  H18R 1406   0.828   3.776   3.842 -1.3732  2.6889  0.1956
   11SAPS  H18S 1407   0.693   3.645   3.859 -1.6099 -0.7502  2.1133
   11SAPS  C219 1408   0.870   3.629   3.992 -0.3523  0.2787 -0.4228
   11SAPS  H19R 1409   0.807   3.574   4.065  1.4683 -0.3370  0.7517
   11SAPS  H19S 1410   0.949   3.696   4.034  0.7756 -2.0552  1.4320
   11SAPS  C220 1411   0.944   3.522   3.911 -0.3282 -0.3496 -0.0973
   11SAPS  H20R 1412   1.012   3.569   3.836 -0.6734 -0.8271 -0.7201
   11SAPS  H20S 1413   0.863   3.475   3.852  1.0291 -0.6749 -1.7861
   11SAPS  H20T 1414   1.011   3.452   3.965  1.3742  0.7005 -0.7671
   11SAPS   C33 1415   0.053   4.092   3.164  0.2811 -0.1270  0.2864
   11SAPS   H3X 1416   0.124   4.148   3.229  2.4020 -2.4425  0.1316
   11SAPS   H3Y 1417   0.103   3.999   3.129 -0.5979 -0.1709 -0.9329
   11SAPS   C34 1418  -0.056   4.041   3.261  0.1354  0.7803 -0.1171
   11SAPS   H4X 1419  -0.113   3.965   3.204  3.7974 -1.6280 -0.8747
   11SAPS   H4Y 1420  -0.125   4.118   3.302 -2.2931 -0.8580 -0.9021
   11SAPS   C35 1421   0.012   3.975   3.385 -0.9200 -0.4271 -0.5911
   11SAPS   H5X 1422   0.066   4.053   3.442 -0.9070 -0.6717 -0.2670
   11SAPS   H5Y 1423   0.078   3.888   3.363  0.9240  0.3522  1.5277
   11SAPS   C36 1424  -0.103   3.929   3.478 -0.3108  0.4263  0.5409
   11SAPS   H6X 1425  -0.154   3.836   3.445 -0.3312 -0.7079  3.5067
   11SAPS   H6Y 1426  -0.178   4.010   3.491  0.0265  0.9997 -0.9030
   11SAPS   C37 1427  -0.055   3.897   3.622  0.1432 -0.5499  0.2410
   11SAPS   H7X 1428  -0.137   3.868   3.691  1.5334 -0.5885  1.9643
   11SAPS   H7Y 1429   0.003   3.985   3.658  1.7605 -1.0215 -1.0638
   11SAPS   C38 1430   0.019   3.763   3.618  0.1463 -0.0918  0.2080
   11SAPS   H8X 1431   0.102   3.767   3.544  1.0765 -2.2018  1.0391
   11SAPS   H8Y 1432  -0.040   3.669   3.609  1.8176 -1.2524  0.6625
   11SAPS   C39 1433   0.096   3.712   3.752 -0.2374 -0.3496  0.9573
   11SAPS   H9X 1434   0.164   3.628   3.728 -0.6246 -1.2911  2.9503
   11SAPS   H9Y 1435   0.028   3.686   3.835  0.3226  1.6307  2.1234
   11SAPS  C310 1436   0.194   3.818   3.809  0.5093 -0.5059 -0.3722
   11SAPS  H10X 1437   0.148   3.917   3.825  0.5575 -0.2737 -1.5685
   11SAPS  H10Y 1438   0.273   3.837   3.734  0.5274  0.2667 -0.1648
   11SAPS  C311 1439   0.248   3.766   3.941 -0.3706  0.5146  0.2953
   11SAPS  H11X 1440   0.331   3.836   3.968  2.2745 -2.2780 -0.1179
   11SAPS  H11Y 1441   0.305   3.671   3.933 -0.7219 -0.1323  3.7726
   11SAPS  C312 1442   0.148   3.764   4.057 -0.0569  0.0307  0.3669
   11SAPS  H12X 1443   0.080   3.677   4.047  1.5991 -1.2714  0.0182
   11SAPS  H12Y 1444   0.089   3.858   4.049  0.5260  0.4769  1.0837
   11SAPS  C313 1445   0.212   3.768   4.197  0.7873 -0.3302 -0.0693
   11SAPS  H13X 1446   0.299   3.836   4.209  1.0404 -0.5721 -0.4765
   11SAPS  H13Y 1447   0.249   3.666   4.223  1.0494 -0.3184 -0.3794
   11SAPS  C314 1448   0.117   3.805   4.305  0.5478 -0.1214  0.0964
   11SAPS  H14X 1449   0.025   3.745   4.291  0.0994  0.2903  1.1523
   11SAPS  H14Y 1450   0.079   3.909   4.296  0.5351 -0.2860 -2.3788
   11SAPS  C315 1451   0.171   3.779   4.447 -0.3673  0.7501 -0.6493
   11SAPS  H15X 1452   0.203   3.673   4.460 -1.2691  0.3760 -1.4259
   11SAPS  H15Y 1453   0.081   3.785   4.512  0.0873  0.1944  0.0471
   11SAPS  C316 1454   0.294   3.863   4.492  1.0360  0.1861 -0.1941
   11SAPS  H16X 1455   0.268   3.968   4.469  0.6284  0.1607  0.1344
   11SAPS  H16Y 1456   0.387   3.844   4.435  1.6925 -0.3684  1.0176
   11SAPS  C317 1457   0.318   3.842   4.641  0.7862  0.1355 -0.5149
   11SAPS  H17X 1458   0.389   3.757   4.644  0.9404  0.2923  0.2264
   11SAPS  H17Y 1459   0.226   3.801   4.688  2.6924 -1.8706  1.6851
   11SAPS  C318 1460   0.373   3.963   4.720 -0.1718 -0.9282  0.0727
   11SAPS  H18X 1461   0.412   3.948   4.823 -2.3879  0.3326  1.1713
   11SAPS  H18Y 1462   0.297   4.044   4.716  1.0978  0.3100  0.5186
   11SAPS  H18Z 1463   0.463   3.998   4.666 -1.1517  1.2418 -0.2818
   12SAPS     N 1464   6.401   3.503   2.174 -0.4310 -0.3311  0.3708
   12SAPS   HN1 1465   6.447   3.596   2.179  0.4034 -0.7425  0.4335
   12SAPS   HN2 1466   6.310   3.514   2.124  0.3637  2.9542 -0.6403
   12SAPS   HN3 1467   6.379   3.480   2.273  1.9858 -1.8014  0.6431
   12SAPS   C12 1468   6.503   3.407   2.120  0.5074 -0.3424 -0.0780
   12SAPS  H12A 1469   6.464   3.307   2.131  0.2969 -0.4281 -1.3855
   12SAPS   C13 1470   6.546   3.441   1.971  0.2660  0.5929 -0.3866
   12SAPS  O13A 1471   6.482   3.526   1.911 -0.4246  0.7354 -0.0259
   12SAPS  O13B 1472   6.632   3.367   1.912  0.1267 -0.3337 -0.6137
   12SAPS   C11 1473   6.625   3.409   2.219 -0.0358  0.0379 -0.4048
   12SAPS  H11A 1474   6.706   3.351   2.169 -1.3583 -0.1075 -2.4937
   12SAPS  H11B 1475   6.609   3.352   2.314  0.1419  2.0849  0.9109
   12SAPS     P 1476   6.814   3.596   2.225 -0.0074 -0.1958  0.0821
   12SAPS   O13 1477   6.916   3.494   2.235 -0.4313  0.4083  0.2242
   12SAPS   O14 1478   6.835   3.683   2.108  0.5341 -0.2086 -0.4406
   12SAPS   O12 1479   6.671   3.537   2.237 -0.1997 -0.5625 -0.2784
   12SAPS   O11 1480   6.826   3.695   2.349  0.2712 -0.1043 -0.2359
   12SAPS    C1 1481   6.768   3.824   2.366  0.4690 -0.4153  1.0307
   12SAPS    HA 1482   6.848   3.899   2.350  0.7072 -1.0883 -1.3556
   12SAPS    HB 1483   6.710   3.858   2.277 -0.3497 -1.0075  1.3317
   12SAPS    C2 1484   6.686   3.843   2.491  0.5441  0.4694  0.0994
   12SAPS    HS 1485   6.685   3.952   2.513  1.0218  0.3389  0.8121
   12SAPS   O21 1486   6.748   3.761   2.590 -0.4283  0.1831 -0.0955
   12SAPS   C21 1487   6.714   3.792   2.714 -0.8664 -0.8367  0.5275
   12SAPS   O22 1488   6.660   3.896   2.748  0.0448  0.1456  0.1027
   12SAPS   C22 1489   6.748   3.689   2.818  0.1130 -0.0212 -0.0641
   12SAPS   H2R 1490   6.670   3.611   2.809 -3.1388  2.9392  0.3230
   12SAPS   H2S 1491   6.849   3.654   2.788  0.1865  1.2542 -1.4749
   12SAPS    C3 1492   6.535   3.794   2.461  0.1037  0.0163 -0.3005
   12SAPS    HX 1493   6.548   3.686   2.439  0.7078  0.0514 -0.1447
   12SAPS    HY 1494   6.499   3.841   2.367  0.7612 -1.2132 -1.1876
   12SAPS   O31 1495   6.441   3.840   2.554  0.2711  0.4369 -0.8903
   12SAPS   C31 1496   6.397   3.752   2.644 -0.3404  0.0471 -0.0616
   12SAPS   O32 1497   6.417   3.628   2.637  0.1080 -0.3146 -0.3043
   12SAPS   C32 1498   6.303   3.817   2.753 -0.0443  0.4408  0.0647
   12SAPS   H2X 1499   6.237   3.876   2.686  0.9424  1.1190 -0.3334
   12SAPS   H2Y 1500   6.366   3.896   2.799  1.1959  0.3089 -1.3278
   12SAPS   C23 1501   6.748   3.759   2.968  0.4652 -0.1970  0.0890
   12SAPS   H3R 1502   6.649   3.809   2.976  0.3970  0.1440 -2.1945
   12SAPS   H3S 1503   6.833   3.831   2.967  0.7243 -0.4617  1.4635
   12SAPS   C24 1504   6.753   3.659   3.083 -0.0504  0.8145  0.0070
   12SAPS   H4R 1505   6.724   3.724   3.169  0.8683 -0.1705  1.0909
   12SAPS   H4S 1506   6.859   3.627   3.088 -0.0484  0.4615 -1.6100
   12SAPS   C25 1507   6.657   3.545   3.075  0.1785 -0.1294 -0.3605
   12SAPS   H5R 1508   6.670   3.474   2.992  2.0737  0.1193 -0.3393
   12SAPS   C26 1509   6.545   3.518   3.145  0.2488 -0.0851 -0.1374
   12SAPS   H6R 1510   6.483   3.430   3.123  0.1248 -0.5101  1.6846
   12SAPS   C27 1511   6.481   3.608   3.255 -0.3494  0.3183  0.0434
   12SAPS   H7R 1512   6.372   3.592   3.267 -0.2338  0.9524  2.3516
   12SAPS   H7S 1513   6.502   3.712   3.225  0.5902  0.2624  0.4687
   12SAPS   C28 1514   6.549   3.581   3.389 -0.0961  0.3266 -0.1536
   12SAPS   H8R 1515   6.622   3.498   3.395 -1.9804 -1.3521  0.3698
   12SAPS   C29 1516   6.545   3.655   3.504 -0.5477 -0.2743 -0.2372
   12SAPS   H9R 1517   6.614   3.631   3.587 -0.0917  2.4100  0.2433
   12SAPS  C210 1518   6.457   3.771   3.537 -0.2156 -0.5256 -0.1975
   12SAPS  H10R 1519   6.416   3.826   3.450  0.8118  0.1130 -0.2884
   12SAPS  H10S 1520   6.504   3.857   3.590 -0.3141 -1.2353  1.0792
   12SAPS  C211 1521   6.334   3.741   3.618 -0.1531  0.0325 -0.6032
   12SAPS  H11R 1522   6.248   3.715   3.555  0.7188  0.6299 -2.1069
   12SAPS  C212 1523   6.324   3.743   3.756  0.1243 -0.2655 -0.3885
   12SAPS  H12R 1524   6.224   3.728   3.799  0.9695 -1.7657  1.1208
   12SAPS  C213 1525   6.429   3.789   3.860 -0.0504 -0.0536 -0.0516
   12SAPS  H13R 1526   6.373   3.808   3.954 -1.4643  0.2688 -0.9327
   12SAPS  H13S 1527   6.470   3.881   3.814  0.6894 -1.4928 -2.4625
   12SAPS  C214 1528   6.556   3.710   3.877  0.0358  0.3861 -0.2289
   12SAPS  H14R 1529   6.570   3.625   3.810 -1.6209  0.8024 -1.1661
   12SAPS  C215 1530   6.651   3.727   3.970 -0.5105  1.4613 -1.3263
   12SAPS  H15R 1531   6.737   3.659   3.968 -0.9237  0.7506  1.3978
   12SAPS  C216 1532   6.641   3.836   4.070 -1.0403  0.5689  0.2110
   12SAPS  H16R 1533   6.565   3.913   4.043 -0.0956  1.3787 -0.2136
   12SAPS  H16S 1534   6.737   3.892   4.079 -1.4161  1.1049  1.1498
   12SAPS  C217 1535   6.598   3.783   4.210 -0.1966 -0.1955  0.2591
   12SAPS  H17R 1536   6.670   3.714   4.259  0.2633  1.0032  1.3227
   12SAPS  H17S 1537   6.496   3.742   4.190 -0.6090  0.9135 -0.0253
   12SAPS  C218 1538   6.577   3.906   4.299 -0.0489  0.8666 -0.5792
   12SAPS  H18R 1539   6.506   3.976   4.251 -1.6359  0.3940  0.9769
   12SAPS  H18S 1540   6.684   3.935   4.309  0.9681 -3.0083  2.2800
   12SAPS  C219 1541   6.543   3.891   4.450  0.3222  0.2566 -0.4011
   12SAPS  H19R 1542   6.435   3.867   4.464  0.8948 -1.6650  1.3417
   12SAPS  H19S 1543   6.551   3.985   4.508  1.4319  0.1818 -0.4023
   12SAPS  C220 1544   6.634   3.804   4.533  0.0118 -0.1178  0.5724
   12SAPS  H20R 1545   6.741   3.835   4.522 -0.2910 -0.1000 -3.9390
   12SAPS  H20S 1546   6.622   3.702   4.492  1.2106 -0.8699  1.9800
   12SAPS  H20T 1547   6.607   3.819   4.640 -0.7759  0.4643  0.2996
   12SAPS   C33 1548   6.233   3.728   2.855 -0.3441 -0.0122 -0.1625
   12SAPS   H3X 1549   6.311   3.655   2.884 -1.5500 -0.9742  0.7782
   12SAPS   H3Y 1550   6.143   3.680   2.811  0.1813 -1.1165 -0.0631
   12SAPS   C34 1551   6.200   3.840   2.956 -1.0054 -0.0943 -0.5027
   12SAPS   H4X 1552   6.135   3.922   2.919  0.0258  0.5064 -1.0158
   12SAPS   H4Y 1553   6.284   3.903   2.990 -1.7882  2.0240 -2.2724
   12SAPS   C35 1554   6.138   3.772   3.076  0.3411  0.5353 -0.0930
   12SAPS   H5X 1555   6.175   3.668   3.089  0.0929  0.3165 -1.1033
   12SAPS   H5Y 1556   6.030   3.760   3.054 -0.0456 -0.4681  2.0941
   12SAPS   C36 1557   6.141   3.850   3.207  0.0791 -0.1100 -0.4613
   12SAPS   H6X 1558   6.123   3.958   3.189 -0.2335  0.0205  0.5836
   12SAPS   H6Y 1559   6.245   3.848   3.247 -0.6150 -1.3884  1.4276
   12SAPS   C37 1560   6.048   3.787   3.312 -0.4603 -0.3881  0.2810
   12SAPS   H7X 1561   6.080   3.687   3.346  0.1217  0.5506  2.6832
   12SAPS   H7Y 1562   5.949   3.761   3.268 -0.9044  0.9850  0.4110
   12SAPS   C38 1563   6.027   3.879   3.432  0.6413  0.9000 -0.5861
   12SAPS   H8X 1564   5.991   3.981   3.407  1.2437  0.8751 -1.6180
   12SAPS   H8Y 1565   6.126   3.888   3.480  0.7351 -0.8876 -0.3713
   12SAPS   C39 1566   5.928   3.821   3.535 -0.5502 -0.4364  0.5216
   12SAPS   H9X 1567   5.957   3.716   3.559  0.8712  0.4492  2.9558
   12SAPS   H9Y 1568   5.824   3.813   3.496 -0.2382 -0.6058 -0.3042
   12SAPS  C310 1569   5.933   3.896   3.666  0.4363  0.2887 -0.4696
   12SAPS  H10X 1570   5.890   3.998   3.656  2.1943  1.0350 -0.8664
   12SAPS  H10Y 1571   6.035   3.926   3.700  0.0341  0.3518  0.7417
   12SAPS  C311 1572   5.861   3.813   3.780  0.3438 -0.0179  0.4005
   12SAPS  H11X 1573   5.921   3.722   3.800  0.3920  0.2121  1.3735
   12SAPS  H11Y 1574   5.761   3.788   3.740  0.0144 -0.1226  1.2685
   12SAPS  C312 1575   5.841   3.900   3.909  0.5428  0.2592  0.3062
   12SAPS  H12X 1576   5.791   3.995   3.882 -0.5141 -0.2759  0.3375
   12SAPS  H12Y 1577   5.941   3.905   3.956  1.1001 -4.3693  0.0488
   12SAPS  C313 1578   5.754   3.826   4.010 -0.4598 -0.3887 -0.2283
   12SAPS  H13X 1579   5.813   3.763   4.080 -1.4220  0.1051  1.0549
   12SAPS  H13Y 1580   5.683   3.763   3.952 -0.7226  0.1119 -0.4555
   12SAPS  C314 1581   5.681   3.925   4.097 -0.7878 -0.2427  0.1524
   12SAPS  H14X 1582   5.590   3.967   4.048 -0.9098 -1.1903 -0.4497
   12SAPS  H14Y 1583   5.746   4.011   4.124  0.1432 -0.9725  0.2804
   12SAPS  C315 1584   5.631   3.857   4.227 -0.0989 -0.3029 -0.6444
   12SAPS  H15X 1585   5.714   3.810   4.285  0.1243  1.1200  0.2245
   12SAPS  H15Y 1586   5.564   3.772   4.204  0.4525 -0.7900 -0.4938
   12SAPS  C316 1587   5.552   3.957   4.314  0.1813  0.3070 -0.2328
   12SAPS  H16X 1588   5.490   4.020   4.245  2.9431  3.2508 -0.2347
   12SAPS  H16Y 1589   5.614   4.026   4.374 -3.6579  3.3269  0.6846
   12SAPS  C317 1590   5.457   3.871   4.408 -0.0429 -0.0878  0.4552
   12SAPS  H17X 1591   5.391   3.806   4.346  1.1044 -0.7575 -0.1066
   12SAPS  H17Y 1592   5.403   3.950   4.464 -0.6384  0.8548 -1.3688
   12SAPS  C318 1593   5.526   3.796   4.528  1.1154 -0.0734  0.9083
   12SAPS  H18X 1594   5.566   3.866   4.605 -0.8257  0.9152  1.0815
   12SAPS  H18Y 1595   5.606   3.740   4.475 -1.9414 -3.0203 -1.0028
   12SAPS  H18Z 1596   5.454   3.724   4.573 -2.3397  1.9984 -0.8352
   13SAPS     N 1597   1.359   6.155   2.392 -0.1690  0.3831  0.2331
   13SAPS   HN1 1598   1.317   6.060   2.394 -2.6865  1.3670 -0.9423
   13SAPS   HN2 1599   1.355   6.188   2.491 -1.3303  1.2407 -0.0673
   13SAPS   HN3 1600   1.299   6.211   2.328  0.7308 -0.1478 -1.1151
   13SAPS   C12 1601   1.501   6.162   2.343  0.3086  0.4845 -0.3232
   13SAPS  H12A 1602   1.507   6.138   2.238 -0.3875  0.3184 -0.3288
   13SAPS   C13 1603   1.556   6.300   2.364 -0.6611  0.5065 -0.1773
   13SAPS  O13A 1604   1.481   6.393   2.407  0.2999  0.0643 -0.3184
   13SAPS  O13B 1605   1.670   6.328   2.314  0.0102 -0.7340  0.0016
   13SAPS   C11 1606   1.593   6.056   2.424  0.9001 -0.6067 -0.3354
   13SAPS  H11A 1607   1.594   6.089   2.530 -0.2822 -0.0991 -0.4648
   13SAPS  H11B 1608   1.699   6.044   2.392  1.2653 -1.5028  1.0907
   13SAPS     P 1609   1.488   5.841   2.521 -0.2305 -0.6034 -0.4882
   13SAPS   O13 1610   1.351   5.884   2.542  0.1586  0.1949  1.0027
   13SAPS   O14 1611   1.514   5.699   2.501 -0.2795  0.8748 -0.0560
   13SAPS   O12 1612   1.541   5.925   2.406 -0.2769  0.0511  0.1587
   13SAPS   O11 1613   1.573   5.895   2.652  0.3011  0.0440  0.0194
   13SAPS    C1 1614   1.718   5.878   2.658 -0.8176 -0.4564 -0.4511
   13SAPS    HA 1615   1.751   5.805   2.581 -0.5582 -0.1741 -0.6065
   13SAPS    HB 1616   1.768   5.976   2.648 -1.2353  0.0173  1.6367
   13SAPS    C2 1617   1.749   5.826   2.802  0.1740  0.7475 -0.1242
   13SAPS    HS 1618   1.692   5.733   2.824 -0.5148  1.3481  0.6913
   13SAPS   O21 1619   1.707   5.923   2.900 -0.2972 -0.0939  0.3503
   13SAPS   C21 1620   1.640   5.881   3.006  0.1768  0.1119 -0.2875
   13SAPS   O22 1621   1.607   5.762   3.024 -0.6393 -0.5299  0.3092
   13SAPS   C22 1622   1.609   5.994   3.108 -0.1446 -0.1232  0.4632
   13SAPS   H2R 1623   1.680   6.073   3.076 -0.6209 -0.6802 -2.2238
   13SAPS   H2S 1624   1.506   6.017   3.074 -0.1223  0.6149  0.8847
   13SAPS    C3 1625   1.900   5.801   2.817  0.7756 -0.3075  0.1456
   13SAPS    HX 1626   1.969   5.887   2.798  1.0116 -0.9020 -1.9192
   13SAPS    HY 1627   1.930   5.732   2.736 -1.2037 -0.6000 -0.3922
   13SAPS   O31 1628   1.935   5.752   2.947  0.1336  0.2054 -0.0149
   13SAPS   C31 1629   1.911   5.624   2.963  0.5061 -0.1958 -0.4000
   13SAPS   O32 1630   1.872   5.542   2.880 -0.2773 -0.1402  0.1413
   13SAPS   C32 1631   1.935   5.582   3.109  0.3943 -0.3317  0.8146
   13SAPS   H2X 1632   1.969   5.664   3.176  1.1826  0.3711 -0.3899
   13SAPS   H2Y 1633   2.024   5.516   3.096  0.0143 -0.3765 -2.3140
   13SAPS   C23 1634   1.631   5.945   3.252  0.5973  0.7070  0.4586
   13SAPS   H3R 1635   1.728   5.891   3.256  0.2105 -0.0377  0.1414
   13SAPS   H3S 1636   1.548   5.873   3.269  0.9918  0.0281 -0.3904
   13SAPS   C24 1637   1.619   6.049   3.362 -0.6881  0.8690  1.4182
   13SAPS   H4R 1638   1.515   6.091   3.363 -1.1697 -0.2443  0.3874
   13SAPS   H4S 1639   1.680   6.131   3.319  0.7399 -1.1493 -0.6184
   13SAPS   C25 1640   1.674   6.002   3.497 -0.1787 -0.0426 -1.0302
   13SAPS   H5R 1641   1.783   5.988   3.505 -0.1559  1.1412  1.9648
   13SAPS   C26 1642   1.605   6.006   3.611  0.3569  0.0001  0.0128
   13SAPS   H6R 1643   1.665   6.001   3.702  0.1370  0.9253  0.2195
   13SAPS   C27 1644   1.457   6.039   3.637 -0.3472  0.1031 -0.2114
   13SAPS   H7R 1645   1.402   5.949   3.673  0.0490  0.6594  1.9073
   13SAPS   H7S 1646   1.404   6.062   3.542 -0.0647  2.0424  0.0540
   13SAPS   C28 1647   1.430   6.154   3.735 -0.2513  0.8140  0.3910
   13SAPS   H8R 1648   1.402   6.253   3.695 -1.5176 -0.0621 -0.9848
   13SAPS   C29 1649   1.437   6.127   3.867  0.0957 -0.1646  0.3114
   13SAPS   H9R 1650   1.418   6.213   3.932 -0.0384  0.8864 -1.0746
   13SAPS  C210 1651   1.469   5.997   3.945 -0.4018  0.4695  0.5983
   13SAPS  H10R 1652   1.567   6.024   3.990 -0.1035  1.8622 -0.8096
   13SAPS  H10S 1653   1.471   5.914   3.872 -0.6982  1.8219 -0.9988
   13SAPS  C211 1654   1.367   5.963   4.052  0.0315  0.4033 -0.5568
   13SAPS  H11R 1655   1.276   5.937   3.996  0.1210  0.9469 -0.9632
   13SAPS  C212 1656   1.357   5.984   4.189 -0.4983 -0.0849  0.3567
   13SAPS  H12R 1657   1.267   5.961   4.249 -0.8427  1.0991  0.3122
   13SAPS  C213 1658   1.463   6.043   4.283 -0.0690  0.0059  0.3685
   13SAPS  H13R 1659   1.555   6.044   4.220 -0.2401 -0.0369  0.1155
   13SAPS  H13S 1660   1.486   5.972   4.365 -1.5689 -0.4067  0.4618
   13SAPS  C214 1661   1.433   6.172   4.350 -0.8992  0.6058  0.2357
   13SAPS  H14R 1662   1.336   6.185   4.401  0.2327  1.5082  2.2583
   13SAPS  C215 1663   1.518   6.272   4.360 -0.6745  0.2152 -0.6709
   13SAPS  H15R 1664   1.493   6.366   4.411  0.8551  0.9568 -1.2032
   13SAPS  C216 1665   1.654   6.284   4.293 -0.0138 -0.7808  0.1176
   13SAPS  H16R 1666   1.681   6.197   4.229 -1.0398 -0.1427 -1.2089
   13SAPS  H16S 1667   1.739   6.293   4.365 -0.2925 -1.8633  0.6033
   13SAPS  C217 1668   1.660   6.421   4.215 -0.6048 -0.4178  0.3432
   13SAPS  H17R 1669   1.766   6.440   4.191 -1.0282  0.0183 -1.3093
   13SAPS  H17S 1670   1.638   6.501   4.288 -1.6015  0.2456 -0.6504
   13SAPS  C218 1671   1.598   6.429   4.078  0.5541 -0.7682  0.1461
   13SAPS  H18R 1672   1.487   6.419   4.075  0.6433 -1.6956 -0.3176
   13SAPS  H18S 1673   1.628   6.339   4.019  0.9051 -0.0142 -0.8643
   13SAPS  C219 1674   1.648   6.550   4.001 -0.3030 -0.7750 -0.5022
   13SAPS  H19R 1675   1.759   6.539   3.997 -0.3780 -1.5903 -0.5945
   13SAPS  H19S 1676   1.634   6.640   4.065  0.0173 -1.0990  0.0344
   13SAPS  C220 1677   1.593   6.563   3.861 -0.6063 -0.5355 -0.5849
   13SAPS  H20R 1678   1.626   6.478   3.797  2.3122  1.4299 -1.9106
   13SAPS  H20S 1679   1.620   6.659   3.813 -0.2863  1.3680  3.1369
   13SAPS  H20T 1680   1.482   6.559   3.862 -0.6220 -0.0721  0.5166
   13SAPS   C33 1681   1.817   5.493   3.171  0.1141 -0.9029 -0.3413
   13SAPS   H3X 1682   1.794   5.421   3.089  5.3558 -0.7738 -2.2909
   13SAPS   H3Y 1683   1.735   5.564   3.196 -0.0512  0.4607 -4.0713
   13SAPS   C34 1684   1.861   5.418   3.295 -0.6721 -0.5728 -0.1220
   13SAPS   H4X 1685   1.911   5.490   3.363  1.5983 -1.7047 -0.5151
   13SAPS   H4Y 1686   1.928   5.336   3.262  0.4157  0.1248  0.2877
   13SAPS   C35 1687   1.749   5.344   3.372  0.3144 -0.4287 -0.1487
   13SAPS   H5X 1688   1.796   5.279   3.449  0.2112 -2.8882 -2.0377
   13SAPS   H5Y 1689   1.696   5.270   3.308 -1.6521 -1.0140  2.0085
   13SAPS   C36 1690   1.629   5.434   3.429 -0.9866 -0.2453  0.2989
   13SAPS   H6X 1691   1.536   5.408   3.374 -0.9314  0.9734 -0.4098
   13SAPS   H6Y 1692   1.650   5.540   3.403 -0.9074 -1.0997 -3.8066
   13SAPS   C37 1693   1.591   5.416   3.573 -0.3766 -0.3251 -0.3315
   13SAPS   H7X 1694   1.534   5.322   3.589 -1.5203  0.4048  0.0255
   13SAPS   H7Y 1695   1.531   5.505   3.601  0.9162  0.4559  0.0631
   13SAPS   C38 1696   1.709   5.432   3.673  0.1700  0.0071 -0.2484
   13SAPS   H8X 1697   1.779   5.347   3.663 -1.4755 -1.8665  2.7770
   13SAPS   H8Y 1698   1.669   5.415   3.775 -1.6774  2.1209 -0.5225
   13SAPS   C39 1699   1.776   5.571   3.667  0.0111 -0.0349 -0.0700
   13SAPS   H9X 1700   1.815   5.592   3.566 -0.2789  0.7756 -0.0262
   13SAPS   H9Y 1701   1.866   5.570   3.731 -0.4571 -1.4005  0.6035
   13SAPS  C310 1702   1.689   5.680   3.724 -0.2161 -0.2786  0.4079
   13SAPS  H10X 1703   1.597   5.692   3.663 -0.5676  0.9895  1.1533
   13SAPS  H10Y 1704   1.738   5.773   3.690  0.0983 -1.1989 -1.8058
   13SAPS  C311 1705   1.673   5.679   3.875 -0.0389  0.0008  0.2461
   13SAPS  H11X 1706   1.640   5.580   3.914 -0.5621  1.0352  2.6220
   13SAPS  H11Y 1707   1.600   5.753   3.913 -0.3631 -1.5138  2.8072
   13SAPS  C312 1708   1.796   5.715   3.961  0.2326  0.5356  0.0842
   13SAPS  H12X 1709   1.849   5.796   3.908  1.2100 -1.5246 -2.2663
   13SAPS  H12Y 1710   1.870   5.632   3.957  2.8500  2.8024 -1.1856
   13SAPS  C313 1711   1.759   5.744   4.106 -0.1349  0.3701 -0.1879
   13SAPS  H13X 1712   1.735   5.649   4.159 -1.7443  0.9016  0.0793
   13SAPS  H13Y 1713   1.668   5.804   4.124 -0.6104 -0.9840  2.4330
   13SAPS  C314 1714   1.878   5.801   4.184  0.0403 -0.8710 -0.2870
   13SAPS  H14X 1715   1.921   5.894   4.141 -0.1576  0.0004  1.3199
   13SAPS  H14Y 1716   1.953   5.720   4.186 -1.4770 -2.3593  2.4479
   13SAPS  C315 1717   1.831   5.852   4.324 -0.9212  0.0856  0.3222
   13SAPS  H15X 1718   1.778   5.771   4.379 -0.6663  1.5860  2.9721
   13SAPS  H15Y 1719   1.758   5.936   4.315 -0.0105  0.7295 -1.3782
   13SAPS  C316 1720   1.938   5.900   4.428  0.8046 -0.3525 -0.7573
   13SAPS  H16X 1721   1.945   6.010   4.422 -1.1711 -0.1067  0.5101
   13SAPS  H16Y 1722   2.039   5.858   4.408  2.5024  2.3529  1.4666
   13SAPS  C317 1723   1.903   5.861   4.578  0.0815 -0.0920  0.0116
   13SAPS  H17X 1724   1.896   5.750   4.574 -1.9154  0.0333 -1.0421
   13SAPS  H17Y 1725   1.798   5.891   4.597 -0.7923 -1.0420 -2.8747
   13SAPS  C318 1726   2.007   5.901   4.690 -0.0793  0.2144 -0.5903
   13SAPS  H18X 1727   1.995   5.837   4.780 -2.9576 -0.3650 -1.2886
   13SAPS  H18Y 1728   1.999   6.008   4.720 -0.4676 -0.4416  1.8746
   13SAPS  H18Z 1729   2.107   5.871   4.651  0.7530  2.2479 -0.1602
   14SAPS     N 1730   2.076   6.631   2.099 -0.0381 -0.2428  0.0993
   14SAPS   HN1 1731   2.138   6.707   2.133 -3.1905  1.6570  2.1367
   14SAPS   HN2 1732   2.080   6.638   1.995  3.5740  1.7066  0.2140
   14SAPS   HN3 1733   1.983   6.646   2.144 -0.0881  0.1920 -0.1493
   14SAPS   C12 1734   2.125   6.496   2.140 -0.2769 -0.4418 -0.6870
   14SAPS  H12A 1735   2.116   6.491   2.248  2.0073  0.7101 -0.3681
   14SAPS   C13 1736   2.062   6.370   2.074 -0.3062  0.0478  0.1195
   14SAPS  O13A 1737   1.970   6.384   1.993  0.4120  0.1565 -0.7365
   14SAPS  O13B 1738   2.101   6.259   2.114 -0.2477  0.0237  0.1017
   14SAPS   C11 1739   2.280   6.487   2.105  0.4965  0.2793  0.3886
   14SAPS  H11A 1740   2.290   6.499   1.995  0.6382  1.1138  0.4835
   14SAPS  H11B 1741   2.314   6.391   2.149 -0.8144 -0.0131  0.8031
   14SAPS     P 1742   2.492   6.599   2.173  0.0412  0.3183  0.0593
   14SAPS   O13 1743   2.544   6.464   2.154  0.0523 -0.4619 -0.0543
   14SAPS   O14 1744   2.547   6.710   2.095 -0.0431  0.0253  0.1115
   14SAPS   O12 1745   2.340   6.600   2.165 -0.4238 -0.4424  0.0737
   14SAPS   O11 1746   2.515   6.646   2.322 -0.3217  0.5438  0.4708
   14SAPS    C1 1747   2.440   6.601   2.434 -0.4981 -0.2985  0.4537
   14SAPS    HA 1748   2.369   6.520   2.407 -0.4320 -0.8091  1.7214
   14SAPS    HB 1749   2.514   6.560   2.506  0.2806 -2.0543 -1.2595
   14SAPS    C2 1750   2.363   6.708   2.503  0.0230  0.2313 -0.5194
   14SAPS    HS 1751   2.286   6.753   2.438 -1.3571 -0.7523  0.3793
   14SAPS   O21 1752   2.452   6.809   2.541  0.4771 -0.0289  0.2570
   14SAPS   C21 1753   2.396   6.923   2.565 -0.5652 -0.2949 -0.4469
   14SAPS   O22 1754   2.278   6.950   2.542  0.3900  0.6361  0.2983
   14SAPS   C22 1755   2.503   7.015   2.638  0.3147  0.4337  0.4943
   14SAPS   H2R 1756   2.545   6.963   2.726  0.2566 -1.7652 -0.6944
   14SAPS   H2S 1757   2.585   7.022   2.563 -0.3665 -0.5692 -0.3874
   14SAPS    C3 1758   2.284   6.651   2.631 -0.4998  0.3163  0.5650
   14SAPS    HX 1759   2.217   6.566   2.604  1.1004 -0.7348 -0.2597
   14SAPS    HY 1760   2.224   6.733   2.675  0.3465  1.8209 -0.9775
   14SAPS   O31 1761   2.377   6.604   2.729  0.2524  0.2343  0.2070
   14SAPS   C31 1762   2.351   6.610   2.852  0.3861  0.3577 -0.2035
   14SAPS   O32 1763   2.257   6.664   2.902 -0.2871  0.0364  0.0375
   14SAPS   C32 1764   2.460   6.519   2.915  0.3210  0.3400  0.0420
   14SAPS   H2X 1765   2.556   6.575   2.911 -0.0877  0.9891 -2.3177
   14SAPS   H2Y 1766   2.471   6.428   2.852 -0.7091 -0.7835  1.4243
   14SAPS   C23 1767   2.456   7.162   2.675 -0.2480  0.3651 -0.4383
   14SAPS   H3R 1768   2.362   7.184   2.621 -1.3568 -1.8908  0.4435
   14SAPS   H3S 1769   2.534   7.237   2.649 -0.6622  0.2859 -2.0254
   14SAPS   C24 1770   2.446   7.175   2.817  0.1827  0.4731  0.1835
   14SAPS   H4R 1771   2.444   7.285   2.830  2.4136  0.6372 -0.5566
   14SAPS   H4S 1772   2.539   7.134   2.860  0.3410 -1.1155 -1.5374
   14SAPS   C25 1773   2.336   7.087   2.873  0.3462 -0.8983 -0.0007
   14SAPS   H5R 1774   2.243   7.081   2.815 -0.5056  0.7532  1.0980
   14SAPS   C26 1775   2.348   7.028   2.995  0.0684 -0.5171 -0.7538
   14SAPS   H6R 1776   2.260   6.971   3.027  0.0770  0.7567  1.8365
   14SAPS   C27 1777   2.472   7.026   3.089  0.0063 -0.0847  0.6295
   14SAPS   H7R 1778   2.436   7.035   3.193  0.5200  2.0882  0.6660
   14SAPS   H7S 1779   2.539   7.113   3.074  0.7990 -0.3193  2.5990
   14SAPS   C28 1780   2.573   6.919   3.059  0.5756 -0.2084  0.1261
   14SAPS   H8R 1781   2.584   6.903   2.951 -0.2716  0.1518 -0.0150
   14SAPS   C29 1782   2.636   6.839   3.153 -0.3020 -0.1106  0.3058
   14SAPS   H9R 1783   2.718   6.773   3.124 -0.6687 -0.8095  0.8263
   14SAPS  C210 1784   2.631   6.863   3.303  1.2002  0.1838 -0.0575
   14SAPS  H10R 1785   2.555   6.801   3.353  0.5418  0.3970 -0.7673
   14SAPS  H10S 1786   2.592   6.965   3.319  1.0306 -0.0301  0.9008
   14SAPS  C211 1787   2.762   6.850   3.375  0.0680 -0.0687  0.4093
   14SAPS  H11R 1788   2.854   6.857   3.314 -0.1226  1.7088  0.2709
   14SAPS  C212 1789   2.778   6.839   3.512 -0.2734 -0.0666  0.3005
   14SAPS  H12R 1790   2.876   6.838   3.561 -0.2184  1.1953  0.2338
   14SAPS  C213 1791   2.668   6.827   3.611 -0.2111  0.9029 -0.3090
   14SAPS  H13R 1792   2.688   6.741   3.678 -1.8625  0.9052  0.2413
   14SAPS  H13S 1793   2.568   6.786   3.583 -1.2071  1.5228  2.1041
   14SAPS  C214 1794   2.636   6.956   3.678  0.3552  0.1299  0.7799
   14SAPS  H14R 1795   2.630   7.038   3.604  1.4587 -1.2169 -0.8659
   14SAPS  C215 1796   2.613   6.975   3.807 -1.0277 -0.6342 -0.2763
   14SAPS  H15R 1797   2.623   7.080   3.837  0.8449 -0.7554 -0.3588
   14SAPS  C216 1798   2.618   6.868   3.919  0.4930 -0.1531 -0.5140
   14SAPS  H16R 1799   2.685   6.784   3.890  0.4930  0.4737 -2.4765
   14SAPS  H16S 1800   2.522   6.813   3.931  0.4204 -0.1124 -0.8983
   14SAPS  C217 1801   2.651   6.921   4.060  0.3238 -0.0058 -0.0049
   14SAPS  H17R 1802   2.659   6.835   4.130 -0.1899  0.4613  0.6485
   14SAPS  H17S 1803   2.572   6.993   4.091 -1.2617 -1.9896  0.8074
   14SAPS  C218 1804   2.782   7.008   4.070  0.2782  0.0351  0.0008
   14SAPS  H18R 1805   2.792   7.090   3.996  1.8886  0.6835  0.8767
   14SAPS  H18S 1806   2.866   6.937   4.049 -1.5840 -1.7185 -2.0537
   14SAPS  C219 1807   2.804   7.069   4.212  0.3746  0.5122 -0.2150
   14SAPS  H19R 1808   2.816   6.985   4.283  0.0830  1.0459  0.4810
   14SAPS  H19S 1809   2.709   7.126   4.226  1.0605  1.5023  0.5656
   14SAPS  C220 1810   2.925   7.158   4.228 -0.0095 -0.2904 -0.0384
   14SAPS  H20R 1811   3.019   7.099   4.221 -0.2436 -0.4506 -2.4109
   14SAPS  H20S 1812   2.915   7.205   4.329  0.2864  1.5901 -0.8432
   14SAPS  H20T 1813   2.920   7.247   4.162 -0.0826  1.9976  2.8089
   14SAPS   C33 1814   2.420   6.479   3.054 -0.0733  0.3149  0.2133
   14SAPS   H3X 1815   2.322   6.428   3.040  0.1991  0.0799 -0.8756
   14SAPS   H3Y 1816   2.403   6.563   3.125  1.1957  2.1489 -1.5505
   14SAPS   C34 1817   2.522   6.390   3.119  0.4229 -0.4265 -0.7573
   14SAPS   H4X 1818   2.619   6.440   3.137  0.1951 -0.5774  1.1623
   14SAPS   H4Y 1819   2.543   6.306   3.049  2.3266 -1.4379  0.9143
   14SAPS   C35 1820   2.485   6.344   3.262 -0.5522 -0.3745 -0.1562
   14SAPS   H5X 1821   2.534   6.245   3.270 -1.8559 -1.3085 -2.6610
   14SAPS   H5Y 1822   2.375   6.334   3.270 -0.4184 -0.7185  1.7260
   14SAPS   C36 1823   2.530   6.432   3.378  0.2472 -0.8090 -0.2603
   14SAPS   H6X 1824   2.468   6.524   3.381 -0.0112 -0.8539 -2.3053
   14SAPS   H6Y 1825   2.635   6.465   3.361  0.0491  0.5207  0.9372
   14SAPS   C37 1826   2.510   6.375   3.513 -0.6478  0.2058  0.8837
   14SAPS   H7X 1827   2.577   6.288   3.501  0.5778  1.1741  0.4952
   14SAPS   H7Y 1828   2.409   6.341   3.543  0.4208 -1.1659  3.1660
   14SAPS   C38 1829   2.577   6.457   3.627 -0.3684  1.2644  0.0012
   14SAPS   H8X 1830   2.521   6.553   3.613 -1.1918  1.1748  2.2675
   14SAPS   H8Y 1831   2.683   6.488   3.618 -0.5832  1.5139 -2.1486
   14SAPS   C39 1832   2.546   6.390   3.755 -0.1863 -0.2380  0.2696
   14SAPS   H9X 1833   2.604   6.296   3.751 -1.3903 -0.9561 -1.5263
   14SAPS   H9Y 1834   2.438   6.365   3.747 -0.3293  0.7436 -1.4819
   14SAPS  C310 1835   2.561   6.491   3.863 -1.0508 -0.2206  0.1014
   14SAPS  H10X 1836   2.507   6.587   3.847  0.7000  0.5091 -1.9190
   14SAPS  H10Y 1837   2.665   6.529   3.854 -0.4755 -1.2782  1.7035
   14SAPS  C311 1838   2.541   6.428   4.006  0.1670  0.0306  0.3633
   14SAPS  H11X 1839   2.608   6.340   4.008 -1.9905 -1.7544 -0.9188
   14SAPS  H11Y 1840   2.439   6.384   4.016  0.0992 -0.3910 -1.7577
   14SAPS  C312 1841   2.567   6.516   4.122  0.0903  0.0039 -0.8665
   14SAPS  H12X 1842   2.508   6.610   4.127 -0.1177 -0.1140 -1.0981
   14SAPS  H12Y 1843   2.671   6.554   4.115 -0.4965  1.7200 -0.6854
   14SAPS  C313 1844   2.540   6.450   4.261  0.3489  0.2499 -0.2647
   14SAPS  H13X 1845   2.596   6.355   4.271 -0.2631 -0.1210 -0.3264
   14SAPS  H13Y 1846   2.433   6.422   4.256  1.1565 -3.0557 -1.8524
   14SAPS  C314 1847   2.573   6.537   4.377 -0.1033 -0.2816 -0.0890
   14SAPS  H14X 1848   2.682   6.560   4.383 -0.3302  0.4598  1.6235
   14SAPS  H14Y 1849   2.553   6.482   4.471 -0.5375 -1.8982 -1.0850
   14SAPS  C315 1850   2.492   6.663   4.394  0.1419 -0.6925 -0.4179
   14SAPS  H15X 1851   2.385   6.639   4.376 -1.0113  1.3165  2.7669
   14SAPS  H15Y 1852   2.524   6.741   4.323  2.2667 -1.9503 -0.9116
   14SAPS  C316 1853   2.513   6.736   4.536 -0.1298 -0.0902 -0.7565
   14SAPS  H16X 1854   2.621   6.730   4.561 -0.6760  2.7047  3.1986
   14SAPS  H16Y 1855   2.464   6.669   4.609  0.5724  0.3921  0.1834
   14SAPS  C317 1856   2.456   6.873   4.548  0.6091  0.0293 -0.4249
   14SAPS  H17X 1857   2.352   6.877   4.509  0.3913  1.5561  0.2388
   14SAPS  H17Y 1858   2.504   6.948   4.481 -0.4134  1.2832  0.2034
   14SAPS  C318 1859   2.467   6.916   4.696  0.3483  0.2355  0.2502
   14SAPS  H18X 1860   2.573   6.935   4.724  0.8957  0.5849 -1.8683
   14SAPS  H18Y 1861   2.423   6.842   4.766  2.4769 -0.9656  0.4100
   14SAPS  H18Z 1862   2.410   7.009   4.716 -2.5451 -1.2651 -0.5851
   15SAPS     N 1863   0.135   5.167   2.658  0.1638 -0.2881  0.4202
   15SAPS   HN1 1864   0.101   5.072   2.684  0.3955 -0.4297  0.2165
   15SAPS   HN2 1865   0.204   5.164   2.580 -0.2332 -0.4163  0.0689
   15SAPS   HN3 1866   0.176   5.214   2.742 -2.2649  1.3025  0.8163
   15SAPS   C12 1867   0.017   5.253   2.618 -0.2114 -0.3165  0.2702
   15SAPS  H12A 1868  -0.028   5.302   2.703  3.5235  0.5844  1.9126
   15SAPS   C13 1869   0.057   5.373   2.522  0.0756  0.4389  0.6833
   15SAPS  O13A 1870   0.177   5.408   2.533  0.0715  0.2189 -0.1166
   15SAPS  O13B 1871  -0.032   5.448   2.476  0.3352 -0.3563 -0.2315
   15SAPS   C11 1872  -0.089   5.162   2.550 -0.0023  0.0028 -0.2322
   15SAPS  H11A 1873  -0.050   5.116   2.456 -1.0791  0.4159 -0.8995
   15SAPS  H11B 1874  -0.175   5.221   2.513  0.6023  0.5858 -0.7465
   15SAPS     P 1875  -0.251   4.969   2.602  0.0546  0.5548 -0.1190
   15SAPS   O13 1876  -0.360   5.033   2.528  0.1068 -0.7410  0.3140
   15SAPS   O14 1877  -0.182   4.850   2.543 -0.0099 -0.2135 -0.2497
   15SAPS   O12 1878  -0.134   5.068   2.646  0.2436 -0.5659  0.4242
   15SAPS   O11 1879  -0.307   4.921   2.746 -0.9019  0.0774 -0.3335
   15SAPS    C1 1880  -0.223   4.843   2.836 -0.5876  0.1901 -0.2805
   15SAPS    HA 1881  -0.279   4.766   2.893  2.8903 -1.2387  1.5143
   15SAPS    HB 1882  -0.137   4.796   2.783  0.2625  1.5546 -0.1640
   15SAPS    C2 1883  -0.162   4.929   2.943  0.2779  0.2002  0.7666
   15SAPS    HS 1884  -0.071   4.976   2.900  0.1034 -0.1447  0.0078
   15SAPS   O21 1885  -0.138   4.847   3.056  0.7387 -0.5845  0.5643
   15SAPS   C21 1886  -0.037   4.759   3.044  0.7675 -0.3626 -0.0481
   15SAPS   O22 1887   0.037   4.739   2.953 -0.4314  0.1791  0.0064
   15SAPS   C22 1888  -0.022   4.687   3.178 -0.0637 -0.8243  0.2996
   15SAPS   H2R 1889   0.031   4.762   3.241 -0.0361  1.1940 -1.9824
   15SAPS   H2S 1890  -0.122   4.673   3.224  0.7922 -1.8322  1.9542
   15SAPS    C3 1891  -0.257   5.040   2.991 -0.3891  0.4862  0.2896
   15SAPS    HX 1892  -0.357   4.993   3.003 -0.1298 -0.3824 -0.8583
   15SAPS    HY 1893  -0.260   5.120   2.914 -1.5033  0.0872 -0.0975
   15SAPS   O31 1894  -0.207   5.087   3.114 -0.3474  0.3443  0.3588
   15SAPS   C31 1895  -0.125   5.182   3.108 -0.1531 -0.1483 -0.4755
   15SAPS   O32 1896  -0.061   5.218   3.005 -0.0862  0.1137  0.0319
   15SAPS   C32 1897  -0.109   5.232   3.248  0.0135 -0.3008 -0.9444
   15SAPS   H2X 1898  -0.188   5.310   3.256 -0.1432 -0.5287 -0.2500
   15SAPS   H2Y 1899  -0.009   5.279   3.259 -1.1820  2.0015  1.1384
   15SAPS   C23 1900   0.054   4.554   3.167 -0.0991  0.4452 -0.0827
   15SAPS   H3R 1901   0.160   4.581   3.146 -0.0946  2.1151  1.7805
   15SAPS   H3S 1902   0.001   4.482   3.100  0.8188  0.2966 -0.6576
   15SAPS   C24 1903   0.057   4.495   3.313 -0.6312 -0.2191  0.1145
   15SAPS   H4R 1904   0.101   4.574   3.378 -0.3772  0.3743 -0.7570
   15SAPS   H4S 1905   0.136   4.417   3.303 -0.6744  0.0097 -5.1365
   15SAPS   C25 1906  -0.069   4.428   3.362  0.4907  0.3191  0.5489
   15SAPS   H5R 1907  -0.145   4.402   3.287  0.4300 -0.1569  0.7763
   15SAPS   C26 1908  -0.102   4.399   3.484  0.5674  1.1354 -0.1777
   15SAPS   H6R 1909  -0.200   4.364   3.519  0.9135  0.9692  0.6605
   15SAPS   C27 1910  -0.010   4.424   3.599 -0.3807  0.9563 -0.1920
   15SAPS   H7R 1911  -0.054   4.507   3.658 -2.9267  0.0218 -0.6435
   15SAPS   H7S 1912   0.083   4.463   3.552 -0.2701 -0.5360 -1.2609
   15SAPS   C28 1913   0.020   4.303   3.687  0.0233  0.1032 -0.0550
   15SAPS   H8R 1914   0.018   4.204   3.640  0.2849  0.5468 -1.0121
   15SAPS   C29 1915   0.030   4.306   3.824 -0.1470 -0.3804 -0.5512
   15SAPS   H9R 1916   0.054   4.214   3.880  2.2946  1.4380  1.6406
   15SAPS  C210 1917   0.032   4.436   3.901 -0.3851 -0.5638  0.0005
   15SAPS  H10R 1918  -0.075   4.466   3.904 -0.8539 -1.8936 -2.0406
   15SAPS  H10S 1919   0.086   4.520   3.851 -2.3148 -0.2381 -1.6407
   15SAPS  C211 1920   0.087   4.409   4.039  0.3899  0.3988 -0.0157
   15SAPS  H11R 1921   0.187   4.452   4.058 -0.8155  2.3576  2.3500
   15SAPS  C212 1922   0.035   4.329   4.131  0.3515  0.0840 -0.0164
   15SAPS  H12R 1923   0.088   4.324   4.227 -0.1193 -1.0602  0.2000
   15SAPS  C213 1924  -0.089   4.251   4.125  0.4964  0.5581  0.0295
   15SAPS  H13R 1925  -0.058   4.145   4.114 -0.4631  0.4202 -1.6469
   15SAPS  H13S 1926  -0.159   4.277   4.043  0.6744 -0.5085 -0.4715
   15SAPS  C214 1927  -0.173   4.258   4.250  0.2220 -0.7126  0.2137
   15SAPS  H14R 1928  -0.269   4.305   4.226  0.4960  2.0176  3.6327
   15SAPS  C215 1929  -0.155   4.209   4.370  0.1982 -0.5556  0.8482
   15SAPS  H15R 1930  -0.234   4.210   4.447 -2.5502  5.1609 -1.5065
   15SAPS  C216 1931  -0.029   4.138   4.409  0.1378 -0.2496  0.3412
   15SAPS  H16R 1932   0.039   4.123   4.324  0.1617  1.7975 -0.0533
   15SAPS  H16S 1933  -0.061   4.040   4.451  2.7423  0.1587  3.7623
   15SAPS  C217 1934   0.054   4.203   4.523  0.0397  0.0580 -0.7587
   15SAPS  H17R 1935   0.077   4.311   4.510 -2.3352  0.6661 -0.2721
   15SAPS  H17S 1936   0.150   4.148   4.537 -0.6176 -0.6962  1.1385
   15SAPS  C218 1937  -0.024   4.207   4.660 -0.0813 -0.1983  0.5313
   15SAPS  H18R 1938  -0.064   4.103   4.669  1.7464 -0.9592  0.3611
   15SAPS  H18S 1939  -0.103   4.284   4.657  0.4015  0.5267  3.4553
   15SAPS  C219 1940   0.062   4.218   4.785 -0.3098  0.0077  0.3344
   15SAPS  H19R 1941   0.119   4.312   4.793 -0.6261  0.3979 -1.5217
   15SAPS  H19S 1942   0.149   4.149   4.783  3.5210  4.3359  1.5835
   15SAPS  C220 1943  -0.029   4.223   4.908  0.5268  0.3692 -0.1305
   15SAPS  H20R 1944   0.032   4.219   5.001 -1.2008 -1.3286  1.0089
   15SAPS  H20S 1945  -0.096   4.135   4.898  0.7862  0.2962 -1.4827
   15SAPS  H20T 1946  -0.088   4.317   4.908 -0.7677 -0.4096  0.3406
   15SAPS   C33 1947  -0.118   5.132   3.372  0.7624 -0.1169  0.9522
   15SAPS   H3X 1948  -0.218   5.083   3.375  0.6021  0.2494  2.3395
   15SAPS   H3Y 1949  -0.118   5.187   3.469  1.2479  0.1431  0.8093
   15SAPS   C34 1950  -0.005   5.034   3.362  0.2672 -0.4458  0.0711
   15SAPS   H4X 1951   0.094   5.084   3.354 -0.0718 -0.0088 -2.1002
   15SAPS   H4Y 1952  -0.008   4.988   3.260  0.9120 -0.1874 -0.0707
   15SAPS   C35 1953   0.006   4.934   3.484 -0.8161  0.0960  0.2521
   15SAPS   H5X 1954   0.099   4.874   3.479  0.2636  1.7520 -0.5429
   15SAPS   H5Y 1955  -0.076   4.860   3.474  0.5676 -1.3477 -0.9280
   15SAPS   C36 1956   0.001   5.014   3.612 -0.7563  0.3929  0.3523
   15SAPS   H6X 1957  -0.098   5.053   3.643 -0.6508  0.4084  0.6782
   15SAPS   H6Y 1958   0.057   5.108   3.591 -1.1015  0.1019 -2.1052
   15SAPS   C37 1959   0.073   4.943   3.727 -0.3292  0.3228 -0.4361
   15SAPS   H7X 1960   0.167   4.890   3.700 -0.5410  0.3464 -1.2466
   15SAPS   H7Y 1961   0.008   4.855   3.749  1.6961 -1.2374 -0.3780
   15SAPS   C38 1962   0.095   5.027   3.854 -0.4593  0.4833 -0.8198
   15SAPS   H8X 1963   0.014   5.092   3.893  0.4194 -0.1198  2.2898
   15SAPS   H8Y 1964   0.175   5.101   3.830  0.7990 -0.3432  0.6002
   15SAPS   C39 1965   0.134   4.936   3.973 -0.3616 -0.1140  0.2556
   15SAPS   H9X 1966   0.169   5.005   4.053  1.0362  0.0059 -0.4337
   15SAPS   H9Y 1967   0.216   4.871   3.937 -0.1988 -0.5688  1.4033
   15SAPS  C310 1968   0.023   4.838   4.020  0.4418  0.2872 -1.1327
   15SAPS  H10X 1969  -0.004   4.771   3.936 -1.2961 -1.4593  0.7123
   15SAPS  H10Y 1970  -0.070   4.891   4.047 -0.1389 -0.7740 -1.0085
   15SAPS  C311 1971   0.056   4.759   4.145 -0.4269 -0.4867 -0.2876
   15SAPS  H11X 1972   0.147   4.696   4.132 -0.3753 -0.5181  0.2304
   15SAPS  H11Y 1973  -0.029   4.692   4.167 -0.0621 -1.4553 -1.6710
   15SAPS  C312 1974   0.066   4.848   4.268 -0.4572 -0.5236  0.4629
   15SAPS  H12X 1975  -0.026   4.906   4.287 -1.1277 -2.0064  1.9832
   15SAPS  H12Y 1976   0.143   4.923   4.240 -1.5092  0.4622  0.1363
   15SAPS  C313 1977   0.097   4.769   4.394 -0.3107 -0.2118  0.5375
   15SAPS  H13X 1978   0.181   4.699   4.377 -0.4483 -0.6794  1.6659
   15SAPS  H13Y 1979   0.017   4.698   4.426 -0.0571 -1.0678 -0.6733
   15SAPS  C314 1980   0.137   4.848   4.514 -0.0421  0.1191 -0.3046
   15SAPS  H14X 1981   0.057   4.921   4.539  1.1067  1.5320 -0.6489
   15SAPS  H14Y 1982   0.225   4.912   4.493 -0.4643  0.2526 -1.8180
   15SAPS  C315 1983   0.174   4.764   4.640  0.3025  0.1492 -0.2555
   15SAPS  H15X 1984   0.263   4.700   4.618 -1.5811 -2.1897 -1.5745
   15SAPS  H15Y 1985   0.086   4.700   4.663  0.1009 -0.5273 -2.7019
   15SAPS  C316 1986   0.211   4.863   4.752  0.1862  0.1362  0.1921
   15SAPS  H16X 1987   0.293   4.930   4.718  0.1085  0.0424 -0.1845
   15SAPS  H16Y 1988   0.255   4.820   4.845 -0.4983  1.3006  1.0962
   15SAPS  C317 1989   0.103   4.962   4.802  0.0600  0.7658 -0.2519
   15SAPS  H17X 1990   0.005   4.915   4.825  0.2008  0.6953  0.2155
   15SAPS  H17Y 1991   0.089   5.052   4.737 -0.4502  0.0591 -1.1367
   15SAPS  C318 1992   0.155   5.023   4.928  0.0786  0.4119 -0.0648
   15SAPS  H18X 1993   0.167   4.951   5.011  1.5274  0.5008 -0.1817
   15SAPS  H18Y 1994   0.078   5.094   4.967  0.8788  0.8804  0.6954
   15SAPS  H18Z 1995   0.250   5.081   4.920  0.5078 -0.0441  1.4652
   16SAPS     N 1996   1.117   5.915   2.781 -0.1172 -0.3644 -0.5189
   16SAPS   HN1 1997   1.134   5.850   2.702 -0.7239  0.2383 -1.1530
   16SAPS   HN2 1998   1.103   5.866   2.872  1.2021 -0.6010 -0.4097
   16SAPS   HN3 1999   1.030   5.966   2.757 -0.0397  0.4254  0.7715
   16SAPS   C12 2000   1.228   6.019   2.788 -0.1042 -0.2153  0.6682
   16SAPS  H12A 2001   1.322   5.967   2.774 -0.2777 -0.1644 -0.9314
   16SAPS   C13 2002   1.218   6.122   2.679 -0.1455 -0.7396 -0.6670
   16SAPS  O13A 2003   1.123   6.136   2.598 -0.0730 -0.1020 -0.1528
   16SAPS  O13B 2004   1.331   6.179   2.657 -0.2817  0.3934 -0.6624
   16SAPS   C11 2005   1.219   6.098   2.918  0.0299  0.3880 -0.3887
   16SAPS  H11A 2006   1.117   6.143   2.912 -1.1628 -2.2798 -1.3750
   16SAPS  H11B 2007   1.296   6.178   2.926 -0.4105  0.8346 -0.5191
   16SAPS     P 2008   1.219   6.053   3.179 -0.2325  0.6341 -0.0906
   16SAPS   O13 2009   1.293   6.183   3.186  0.2516  0.4997 -0.1778
   16SAPS   O14 2010   1.081   6.046   3.234 -0.1738 -0.2887  0.4211
   16SAPS   O12 2011   1.218   6.007   3.029  0.3651 -0.8687 -0.3007
   16SAPS   O11 2012   1.306   5.936   3.242  0.4071  0.1392  0.6984
   16SAPS    C1 2013   1.248   5.798   3.237 -0.5607  0.0968  0.4839
   16SAPS    HA 2014   1.151   5.799   3.183  0.0621 -0.1523 -0.6800
   16SAPS    HB 2015   1.312   5.724   3.185 -2.5253 -0.4701 -1.2583
   16SAPS    C2 2016   1.219   5.739   3.383  0.9250 -0.4066 -0.0602
   16SAPS    HS 2017   1.166   5.643   3.363  2.8784 -1.5801  0.1097
   16SAPS   O21 2018   1.127   5.838   3.450 -0.6118  0.4307 -0.0462
   16SAPS   C21 2019   0.999   5.835   3.403 -0.9015 -0.0235 -0.1321
   16SAPS   O22 2020   0.958   5.749   3.329  0.2573  0.6599  0.1916
   16SAPS   C22 2021   0.917   5.941   3.473  0.3103  0.4114  0.0828
   16SAPS   H2R 2022   0.984   6.007   3.532  2.7383 -0.7798 -1.2129
   16SAPS   H2S 2023   0.893   6.011   3.391 -0.1243  0.4440  0.2315
   16SAPS    C3 2024   1.344   5.703   3.457  0.2073  0.0639 -0.3195
   16SAPS    HX 2025   1.415   5.781   3.423  1.6228 -0.9526  0.1766
   16SAPS    HY 2026   1.387   5.606   3.423  0.5165  0.8259 -2.2568
   16SAPS   O31 2027   1.330   5.707   3.603 -0.2967  0.9826  0.6612
   16SAPS   C31 2028   1.287   5.592   3.654  0.3447  0.1389  0.0782
   16SAPS   O32 2029   1.245   5.494   3.597 -0.6924  0.1568  0.3736
   16SAPS   C32 2030   1.294   5.611   3.808 -0.1437 -0.0186 -0.9085
   16SAPS   H2X 2031   1.197   5.662   3.828 -0.1186 -0.3929  0.2574
   16SAPS   H2Y 2032   1.376   5.681   3.835  0.2440 -1.3519  1.7180
   16SAPS   C23 2033   0.800   5.881   3.550  0.1033 -0.0659  0.7797
   16SAPS   H3R 2034   0.750   5.807   3.483  0.7307  1.0791 -1.0331
   16SAPS   H3S 2035   0.722   5.959   3.566 -0.8025 -0.6489 -0.5494
   16SAPS   C24 2036   0.845   5.811   3.683 -0.3399 -0.7599  0.2869
   16SAPS   H4R 2037   0.909   5.723   3.659 -1.7668 -2.3483  1.9890
   16SAPS   H4S 2038   0.755   5.767   3.731  0.4582 -1.9974  0.6978
   16SAPS   C25 2039   0.911   5.913   3.771 -0.5929 -0.3559 -0.0327
   16SAPS   H5R 2040   1.000   5.962   3.730  0.2446 -2.4734 -0.8744
   16SAPS   C26 2041   0.879   5.945   3.895  0.0757 -0.3198 -0.4080
   16SAPS   H6R 2042   0.933   6.027   3.945 -0.9102  0.3153 -0.3624
   16SAPS   C27 2043   0.761   5.890   3.974  0.0633 -0.0064 -0.6014
   16SAPS   H7R 2044   0.676   5.879   3.903 -1.6578 -0.9133  1.4998
   16SAPS   H7S 2045   0.742   5.964   4.055  1.7114 -0.7931  0.5667
   16SAPS   C28 2046   0.773   5.753   4.020  0.1102  0.0259  0.0462
   16SAPS   H8R 2047   0.785   5.678   3.940  1.9127  3.3822 -3.1265
   16SAPS   C29 2048   0.783   5.722   4.150 -0.4813 -0.4496  0.6664
   16SAPS   H9R 2049   0.814   5.621   4.182 -1.2965 -0.8541  0.2152
   16SAPS  C210 2050   0.765   5.814   4.273  0.0250 -0.0690  0.5484
   16SAPS  H10R 2051   0.657   5.839   4.284  0.1551  0.5263  0.4782
   16SAPS  H10S 2052   0.820   5.907   4.248 -0.7895  0.2167 -0.2570
   16SAPS  C211 2053   0.813   5.753   4.406  0.3782  0.4061  0.2703
   16SAPS  H11R 2054   0.738   5.693   4.460 -0.0442 -0.4291 -1.1670
   16SAPS  C212 2055   0.929   5.781   4.474  0.2477 -0.0404  0.5091
   16SAPS  H12R 2056   0.942   5.736   4.574 -1.2779 -0.3370  0.5931
   16SAPS  C213 2057   1.035   5.872   4.425 -0.0791 -0.9373 -0.3228
   16SAPS  H13R 2058   1.017   5.916   4.325  2.7291  0.4735 -0.2986
   16SAPS  H13S 2059   1.131   5.817   4.418  1.6168  2.0084 -1.7029
   16SAPS  C214 2060   1.061   5.992   4.514 -0.3889 -0.2942 -0.0047
   16SAPS  H14R 2061   0.981   6.065   4.532 -0.4231 -0.4880  0.6465
   16SAPS  C215 2062   1.156   6.010   4.607  0.4092  0.1878 -0.2821
   16SAPS  H15R 2063   1.154   6.097   4.673  0.9196 -0.1949  0.2536
   16SAPS  C216 2064   1.272   5.918   4.632 -0.3086 -1.2192 -0.1471
   16SAPS  H16R 2065   1.292   5.858   4.541  1.0450 -1.6230  0.3792
   16SAPS  H16S 2066   1.251   5.839   4.708  0.2366 -1.0009  0.2361
   16SAPS  C217 2067   1.406   5.993   4.669 -0.0579  0.1981  0.0390
   16SAPS  H17R 2068   1.399   6.054   4.762  0.5730 -1.0040  0.9111
   16SAPS  H17S 2069   1.432   6.068   4.592  0.5147  1.5797  1.5184
   16SAPS  C218 2070   1.522   5.892   4.703  0.2196  0.0526  0.0076
   16SAPS  H18R 2071   1.623   5.934   4.681 -0.8849  2.9081 -0.0203
   16SAPS  H18S 2072   1.521   5.813   4.625  0.1616 -0.1961  0.2573
   16SAPS  C219 2073   1.531   5.833   4.843 -0.1046 -0.0923 -0.0118
   16SAPS  H19R 2074   1.431   5.785   4.856 -0.6456  0.9189 -0.3077
   16SAPS  H19S 2075   1.537   5.916   4.915  1.3798 -1.4874  1.5510
   16SAPS  C220 2076   1.650   5.740   4.860  0.3581 -0.1827 -0.1023
   16SAPS  H20R 2077   1.655   5.661   4.782  1.2431 -0.4667  0.2319
   16SAPS  H20S 2078   1.635   5.680   4.953 -1.2781 -0.0715 -0.2677
   16SAPS  H20T 2079   1.745   5.797   4.869 -1.3164  2.4768  2.9629
   16SAPS   C33 2080   1.293   5.482   3.898 -0.0174  0.2013  0.3712
   16SAPS   H3X 2081   1.351   5.399   3.851  0.0881  0.9654 -0.8827
   16SAPS   H3Y 2082   1.188   5.445   3.902 -0.3535  1.2984  2.9354
   16SAPS   C34 2083   1.339   5.499   4.042  0.1356 -0.0404 -0.0756
   16SAPS   H4X 2084   1.445   5.532   4.038  0.0812  0.0442 -1.0496
   16SAPS   H4Y 2085   1.332   5.398   4.087 -0.1716 -1.7146 -3.5104
   16SAPS   C35 2086   1.256   5.587   4.129 -0.2718  0.1022  0.1606
   16SAPS   H5X 2087   1.166   5.535   4.166  0.9977 -1.2548  1.4647
   16SAPS   H5Y 2088   1.228   5.678   4.071 -0.2478 -0.4111 -0.6675
   16SAPS   C36 2089   1.315   5.632   4.266 -0.7938  0.1781 -0.2915
   16SAPS   H6X 2090   1.260   5.720   4.306  1.7184  1.2640  1.0161
   16SAPS   H6Y 2091   1.417   5.670   4.245  0.0108  0.8827  3.9129
   16SAPS   C37 2092   1.323   5.520   4.372  0.5752  0.4700 -0.2017
   16SAPS   H7X 2093   1.379   5.430   4.341  0.1601 -1.1591  3.3126
   16SAPS   H7Y 2094   1.216   5.491   4.385  0.4351  1.1609  0.3063
   16SAPS   C38 2095   1.371   5.570   4.511 -0.1023 -0.1355 -0.3437
   16SAPS   H8X 2096   1.297   5.639   4.556 -0.0027  1.2814 -2.2318
   16SAPS   H8Y 2097   1.466   5.621   4.486 -1.1378  1.6911 -0.7521
   16SAPS   C39 2098   1.403   5.460   4.610  0.0073  0.3590 -0.0783
   16SAPS   H9X 2099   1.468   5.499   4.690 -0.4687  1.7809 -0.3577
   16SAPS   H9Y 2100   1.475   5.387   4.567  2.4343  1.0333  2.5724
   16SAPS  C310 2101   1.278   5.392   4.667  0.4993  0.5483  1.0621
   16SAPS  H10X 2102   1.249   5.327   4.582  0.5756  0.2222  1.2869
   16SAPS  H10Y 2103   1.194   5.464   4.673  0.6767  0.9788 -0.8113
   16SAPS  C311 2104   1.304   5.308   4.789 -0.3262  0.1390 -0.1721
   16SAPS  H11X 2105   1.335   5.370   4.876 -2.4157 -0.6229  1.1711
   16SAPS  H11Y 2106   1.386   5.239   4.760 -0.2323  0.2399 -0.1499
   16SAPS  C312 2107   1.173   5.240   4.839  0.0996 -0.6235  0.2301
   16SAPS  H12X 2108   1.124   5.182   4.759 -3.1462 -0.2051  1.7492
   16SAPS  H12Y 2109   1.087   5.306   4.863  1.1885  0.6226  0.8574
   16SAPS  C313 2110   1.195   5.158   4.972  0.1021 -0.2354  0.0662
   16SAPS  H13X 2111   1.279   5.194   5.036  1.4408 -3.5978  0.4231
   16SAPS  H13Y 2112   1.222   5.052   4.951 -2.1879 -0.4690 -2.1644
   16SAPS  C314 2113   1.075   5.159   5.068 -0.0605  0.1261 -0.3917
   16SAPS  H14X 2114   0.986   5.130   5.008  0.6198 -0.4483 -1.1316
   16SAPS  H14Y 2115   1.063   5.263   5.105 -0.6470 -0.2643  0.5437
   16SAPS  C315 2116   1.089   5.063   5.191 -0.1789  0.1597  0.0668
   16SAPS  H15X 2117   1.187   5.088   5.236  0.0229 -2.4109  1.2157
   16SAPS  H15Y 2118   1.105   4.959   5.154 -0.2396 -0.3685  1.4685
   16SAPS  C316 2119   0.973   5.067   5.290 -0.1018  1.3893  0.8642
   16SAPS  H16X 2120   0.885   5.029   5.234  1.8334 -1.2123 -0.6462
   16SAPS  H16Y 2121   0.956   5.174   5.315 -1.8529  1.5073 -0.6264
   16SAPS  C317 2122   0.988   4.982   5.411 -0.1181 -0.2035 -0.2628
   16SAPS  H17X 2123   0.904   4.996   5.483  1.3989 -1.7895  1.9396
   16SAPS  H17Y 2124   1.072   5.019   5.473 -1.3885 -0.0273  1.4330
   16SAPS  C318 2125   0.986   4.832   5.399 -0.0299 -0.0742  0.2554
   16SAPS  H18X 2126   0.886   4.785   5.386 -0.5067  0.4194  1.8728
   16SAPS  H18Y 2127   1.038   4.791   5.488  0.7376 -0.6406 -0.4346
   16SAPS  H18Z 2128   1.051   4.797   5.315  0.3748 -2.3029  1.4170
   17SAPS     N 2129   4.304   5.142   2.673 -0.3484 -0.6727 -0.0022
   17SAPS   HN1 2130   4.201   5.139   2.686 -0.3765  1.7736  0.9019
   17SAPS   HN2 2131   4.352   5.135   2.765 -1.1121  0.7098  0.5381
   17SAPS   HN3 2132   4.325   5.238   2.638  0.0283 -0.1571  1.5508
   17SAPS   C12 2133   4.352   5.046   2.570 -0.0999 -0.1163 -0.4002
   17SAPS  H12A 2134   4.297   4.954   2.583  1.8350 -1.1547  1.1051
   17SAPS   C13 2135   4.313   5.087   2.425 -0.9858 -0.6153 -0.5996
   17SAPS  O13A 2136   4.239   5.186   2.410  0.0434  0.2340 -0.3334
   17SAPS  O13B 2137   4.333   5.001   2.334 -0.0318  0.3519 -0.3248
   17SAPS   C11 2138   4.507   5.032   2.584 -0.2487  0.6939 -0.3426
   17SAPS  H11A 2139   4.552   4.947   2.528 -1.1615  0.5317 -0.8467
   17SAPS  H11B 2140   4.515   5.011   2.693  0.4735  0.6198 -0.4037
   17SAPS     P 2141   4.721   5.184   2.531 -0.0116 -0.1318 -0.1521
   17SAPS   O13 2142   4.769   5.126   2.405 -0.1686 -0.1091  0.0728
   17SAPS   O14 2143   4.727   5.335   2.533  0.2731  0.5295  0.1513
   17SAPS   O12 2144   4.572   5.155   2.549  0.3485  0.2059 -0.3513
   17SAPS   O11 2145   4.798   5.127   2.661  0.4318 -0.4220  0.0801
   17SAPS    C1 2146   4.843   5.230   2.758  0.1687  0.1792  0.2104
   17SAPS    HA 2147   4.925   5.197   2.825 -1.2501 -1.2456  1.3147
   17SAPS    HB 2148   4.893   5.318   2.711 -0.1324 -0.0416 -0.5392
   17SAPS    C2 2149   4.728   5.277   2.845 -0.2723 -0.1761  0.0163
   17SAPS    HS 2150   4.637   5.296   2.784  0.7812 -1.2436 -1.9782
   17SAPS   O21 2151   4.777   5.388   2.922 -0.0921 -0.0031 -0.4130
   17SAPS   C21 2152   4.696   5.498   2.919 -0.8345 -0.5943 -0.0402
   17SAPS   O22 2153   4.594   5.516   2.864 -0.0147  0.3829 -0.1676
   17SAPS   C22 2154   4.776   5.601   3.000 -0.2274 -0.0268 -0.0965
   17SAPS   H2R 2155   4.834   5.555   3.082 -1.9304  1.2121  1.9060
   17SAPS   H2S 2156   4.846   5.650   2.929  0.9274 -1.5638 -0.0539
   17SAPS    C3 2157   4.695   5.165   2.948  1.2373 -0.2071 -0.6880
   17SAPS    HX 2158   4.792   5.136   2.992  0.2907 -0.6933  1.2117
   17SAPS    HY 2159   4.656   5.075   2.897  0.5060 -0.5320  0.4164
   17SAPS   O31 2160   4.605   5.211   3.052  0.0630 -0.3371  0.2742
   17SAPS   C31 2161   4.477   5.217   3.027 -0.0346  0.2134  0.5360
   17SAPS   O32 2162   4.428   5.195   2.917  0.2284 -0.1849  1.0239
   17SAPS   C32 2163   4.390   5.266   3.146 -0.2661 -0.0691  0.4820
   17SAPS   H2X 2164   4.330   5.357   3.127  2.3247  1.1754 -2.5061
   17SAPS   H2Y 2165   4.455   5.279   3.236  0.8027 -1.5737 -0.0273
   17SAPS   C23 2166   4.681   5.698   3.064  0.1687  0.0777  0.3888
   17SAPS   H3R 2167   4.615   5.742   2.986 -1.1295 -0.7540  0.9681
   17SAPS   H3S 2168   4.746   5.781   3.099  2.0141 -0.7097 -1.0237
   17SAPS   C24 2169   4.605   5.656   3.191 -0.3159 -0.4352 -0.3596
   17SAPS   H4R 2170   4.537   5.571   3.171  1.5821 -1.7837 -1.3952
   17SAPS   H4S 2171   4.539   5.742   3.214  0.2790 -0.3360  1.0573
   17SAPS   C25 2172   4.693   5.621   3.308 -0.2994  0.2617 -0.1142
   17SAPS   H5R 2173   4.793   5.588   3.277 -0.8290 -0.2444 -1.3451
   17SAPS   C26 2174   4.659   5.618   3.438  0.0388 -0.2329  0.1804
   17SAPS   H6R 2175   4.744   5.605   3.508  0.4682  0.4981 -0.1862
   17SAPS   C27 2176   4.531   5.674   3.507  0.9051 -0.3473 -0.1464
   17SAPS   H7R 2177   4.568   5.758   3.569 -0.5738  1.1245 -1.1688
   17SAPS   H7S 2178   4.482   5.601   3.575  1.7912 -0.5135  0.3234
   17SAPS   C28 2179   4.408   5.730   3.434 -0.3514 -0.0959  0.2489
   17SAPS   H8R 2180   4.383   5.668   3.346  2.5798 -2.2568  0.7707
   17SAPS   C29 2181   4.337   5.844   3.460  0.1114 -0.1646 -1.4285
   17SAPS   H9R 2182   4.262   5.870   3.384  1.3526 -2.3715 -3.5278
   17SAPS  C210 2183   4.363   5.934   3.576  0.0497  0.1620 -0.5324
   17SAPS  H10R 2184   4.423   6.020   3.539  1.5755 -0.2169  0.9177
   17SAPS  H10S 2185   4.419   5.876   3.652  0.2787 -1.8663 -2.1481
   17SAPS  C211 2186   4.236   5.988   3.640  0.3569 -1.1066 -0.3458
   17SAPS  H11R 2187   4.165   6.042   3.577  2.1762  1.2300 -0.5179
   17SAPS  C212 2188   4.206   5.982   3.773  0.1616 -0.5046  0.1657
   17SAPS  H12R 2189   4.124   6.040   3.818 -0.5725 -1.2858 -0.1484
   17SAPS  C213 2190   4.292   5.910   3.870 -0.8474 -0.1271 -0.3326
   17SAPS  H13R 2191   4.369   5.983   3.904 -2.7425  2.1920 -0.7026
   17SAPS  H13S 2192   4.346   5.823   3.828 -0.4281  1.0933 -2.4492
   17SAPS  C214 2193   4.221   5.857   3.999  0.1003 -0.1288  0.5118
   17SAPS  H14R 2194   4.127   5.802   3.992  0.4028 -0.4862 -1.2327
   17SAPS  C215 2195   4.285   5.835   4.109  0.6014  0.4293  0.2797
   17SAPS  H15R 2196   4.230   5.804   4.199  2.0046 -1.7326  0.4555
   17SAPS  C216 2197   4.430   5.865   4.138  0.3065 -0.4763 -0.5923
   17SAPS  H16R 2198   4.492   5.892   4.049  2.7398  0.6425  1.3128
   17SAPS  H16S 2199   4.472   5.770   4.177 -0.4536 -0.9744 -0.9718
   17SAPS  C217 2200   4.453   5.977   4.245 -0.4264 -0.1998  0.4921
   17SAPS  H17R 2201   4.563   5.994   4.255 -0.5041 -0.1550  1.3150
   17SAPS  H17S 2202   4.417   5.919   4.332  1.5124 -0.3318  1.2680
   17SAPS  C218 2203   4.394   6.117   4.224  0.4813  0.4483 -0.0376
   17SAPS  H18R 2204   4.284   6.115   4.206  0.6337  2.1807 -1.2688
   17SAPS  H18S 2205   4.433   6.166   4.133  0.5250 -0.8925 -0.7627
   17SAPS  C219 2206   4.424   6.210   4.337 -0.3113  0.2315 -0.3571
   17SAPS  H19R 2207   4.535   6.204   4.347 -0.2556 -1.6783 -1.6259
   17SAPS  H19S 2208   4.366   6.174   4.424 -0.8176 -0.3672 -0.9324
   17SAPS  C220 2209   4.377   6.351   4.306 -0.3758 -0.5380 -0.2947
   17SAPS  H20R 2210   4.446   6.399   4.234  0.6396 -1.9928 -0.3426
   17SAPS  H20S 2211   4.376   6.416   4.396  0.6381  0.9518 -1.3177
   17SAPS  H20T 2212   4.272   6.340   4.270 -1.4474  0.3245  2.3320
   17SAPS   C33 2213   4.299   5.146   3.188  0.2545 -0.1600 -0.4199
   17SAPS   H3X 2214   4.363   5.056   3.205  0.2021  0.1690  1.9547
   17SAPS   H3Y 2215   4.238   5.120   3.099  2.1777 -0.7410 -1.6292
   17SAPS   C34 2216   4.209   5.157   3.315 -0.5897  0.0188 -0.3891
   17SAPS   H4X 2217   4.152   5.062   3.324 -0.9143  0.3403  1.1770
   17SAPS   H4Y 2218   4.130   5.234   3.300 -0.3533  0.3035 -0.1782
   17SAPS   C35 2219   4.282   5.204   3.449 -0.3113 -0.6013  0.1237
   17SAPS   H5X 2220   4.328   5.305   3.442 -1.5370  0.2613  3.0739
   17SAPS   H5Y 2221   4.359   5.130   3.479 -0.6116  0.2679  3.3243
   17SAPS   C36 2222   4.191   5.206   3.563 -0.5749 -1.1150 -0.1797
   17SAPS   H6X 2223   4.131   5.114   3.579 -1.0476 -0.3353  3.3555
   17SAPS   H6Y 2224   4.126   5.292   3.534  0.2311 -1.2443 -2.6148
   17SAPS   C37 2225   4.257   5.242   3.703 -0.3409 -0.4301  0.0356
   17SAPS   H7X 2226   4.320   5.155   3.735 -1.4196 -0.6392  1.7145
   17SAPS   H7Y 2227   4.172   5.255   3.773 -0.0520  0.5213  0.2222
   17SAPS   C38 2228   4.349   5.372   3.704 -0.2818  0.0874  0.8295
   17SAPS   H8X 2229   4.301   5.459   3.655  1.0629  0.4152  0.0346
   17SAPS   H8Y 2230   4.441   5.350   3.645 -1.3311 -0.4060 -0.6672
   17SAPS   C39 2231   4.402   5.412   3.841  0.4027  0.0128 -0.3436
   17SAPS   H9X 2232   4.481   5.490   3.843  0.8180 -0.3752 -1.3267
   17SAPS   H9Y 2233   4.443   5.323   3.892 -0.0479 -1.6434 -2.7095
   17SAPS  C310 2234   4.282   5.458   3.926 -0.3780  0.5516 -0.9704
   17SAPS  H10X 2235   4.210   5.374   3.938  1.1408 -0.9425 -2.0172
   17SAPS  H10Y 2236   4.222   5.542   3.885  0.3324  2.4385  1.5693
   17SAPS  C311 2237   4.325   5.478   4.073  0.6109 -0.4586 -0.2922
   17SAPS  H11X 2238   4.398   5.562   4.076 -2.7441  2.7306  0.3895
   17SAPS  H11Y 2239   4.362   5.379   4.107 -0.1959 -0.3443  0.9781
   17SAPS  C312 2240   4.207   5.508   4.167  0.8918 -0.6927 -0.5704
   17SAPS  H12X 2241   4.145   5.416   4.161 -1.8625  1.0266 -0.4378
   17SAPS  H12Y 2242   4.134   5.586   4.136 -0.0849 -1.0103  0.8545
   17SAPS  C313 2243   4.235   5.539   4.312 -0.8151  0.6161  0.1504
   17SAPS  H13X 2244   4.287   5.637   4.324 -1.4089  0.7226  2.2590
   17SAPS  H13Y 2245   4.290   5.455   4.360  1.4348  1.6828 -0.3855
   17SAPS  C314 2246   4.112   5.561   4.396  0.7194 -0.3834  0.2687
   17SAPS  H14X 2247   4.055   5.467   4.410 -2.7442  1.7118  1.3858
   17SAPS  H14Y 2248   4.037   5.620   4.339  1.6991 -0.6903 -1.3877
   17SAPS  C315 2249   4.122   5.619   4.536 -0.6488  0.3305 -0.0280
   17SAPS  H15X 2250   4.151   5.725   4.544  0.6523 -0.1484  3.2790
   17SAPS  H15Y 2251   4.201   5.562   4.590 -0.9869 -1.6227 -1.4807
   17SAPS  C316 2252   3.996   5.602   4.624  0.2629  0.6065  0.0216
   17SAPS  H16X 2253   4.034   5.623   4.726 -0.1730 -0.2314  0.3697
   17SAPS  H16Y 2254   3.955   5.499   4.630 -1.7502  1.4350  1.4655
   17SAPS  C317 2255   3.878   5.692   4.574 -0.4636 -0.3150 -0.2678
   17SAPS  H17X 2256   3.860   5.671   4.467  0.2727 -2.2653 -0.0455
   17SAPS  H17Y 2257   3.905   5.800   4.582  1.0941 -0.6444 -0.6181
   17SAPS  C318 2258   3.755   5.668   4.646 -0.9967  0.2832  0.2078
   17SAPS  H18X 2259   3.675   5.743   4.627 -1.4256 -0.3050 -0.3233
   17SAPS  H18Y 2260   3.767   5.664   4.756 -2.6549 -1.2045  0.3716
   17SAPS  H18Z 2261   3.714   5.569   4.621  0.1302 -0.8894  2.6596
   18SAPS     N 2262   3.080   4.300   2.265  0.2168  0.1515  0.2831
   18SAPS   HN1 2263   3.113   4.212   2.308  2.4909 -0.2682 -2.0726
   18SAPS   HN2 2264   3.119   4.296   2.169  0.4811  2.1562  0.2505
   18SAPS   HN3 2265   3.128   4.377   2.316  0.5230  0.1609 -0.0156
   18SAPS   C12 2266   2.935   4.338   2.287  0.1395  0.5330  0.3062
   18SAPS  H12A 2267   2.919   4.425   2.226 -0.3421  0.1575 -0.1127
   18SAPS   C13 2268   2.831   4.235   2.233 -0.5837  0.0028  0.1536
   18SAPS  O13A 2269   2.875   4.130   2.174 -0.8721 -0.1724  0.6182
   18SAPS  O13B 2270   2.708   4.260   2.236  0.1638  0.5079  0.3333
   18SAPS   C11 2271   2.912   4.379   2.433  0.5872  0.3792 -0.4467
   18SAPS  H11A 2272   2.910   4.291   2.501  4.6958  0.4791  0.0516
   18SAPS  H11B 2273   2.817   4.436   2.434  0.7031  0.6595 -2.0721
   18SAPS     P 2274   3.023   4.614   2.485 -0.0997 -0.2480 -0.0195
   18SAPS   O13 2275   3.135   4.667   2.564  0.6525 -0.1820  0.2085
   18SAPS   O14 2276   3.016   4.659   2.348 -0.4506  0.1638  0.2599
   18SAPS   O12 2277   3.016   4.454   2.487 -0.9738 -0.1670 -0.2216
   18SAPS   O11 2278   2.876   4.632   2.539  0.3252 -0.6470 -0.2069
   18SAPS    C1 2279   2.860   4.654   2.688 -0.8025 -0.4992 -0.0399
   18SAPS    HA 2280   2.945   4.616   2.748 -0.4715 -1.6060 -1.1559
   18SAPS    HB 2281   2.854   4.763   2.709  1.4964 -0.1862 -0.7295
   18SAPS    C2 2282   2.725   4.607   2.747  0.2987  0.3685  0.1877
   18SAPS    HS 2283   2.652   4.657   2.679 -0.0231 -0.8340 -0.3712
   18SAPS   O21 2284   2.706   4.658   2.881 -0.2118 -0.4628  0.0036
   18SAPS   C21 2285   2.582   4.668   2.914 -0.1639 -0.2623 -0.5319
   18SAPS   O22 2286   2.485   4.659   2.839  0.1345 -0.0387  0.3424
   18SAPS   C22 2287   2.579   4.708   3.059  0.1417  0.4033  0.9020
   18SAPS   H2R 2288   2.684   4.720   3.093  1.1744 -2.5963 -0.8066
   18SAPS   H2S 2289   2.542   4.812   3.052  4.5659  2.1948  0.5693
   18SAPS    C3 2290   2.679   4.458   2.728  0.4851  0.0123 -0.7452
   18SAPS    HX 2291   2.724   4.416   2.635 -1.8032 -1.2110 -1.3724
   18SAPS    HY 2292   2.568   4.454   2.729  0.4937 -0.2091 -0.3123
   18SAPS   O31 2293   2.715   4.378   2.839 -0.4055 -0.3031 -0.3999
   18SAPS   C31 2294   2.752   4.253   2.824 -0.2606  0.0908 -0.5373
   18SAPS   O32 2295   2.741   4.194   2.718  0.2020 -0.6533 -0.0684
   18SAPS   C32 2296   2.803   4.208   2.964  0.0646  0.2743  0.7127
   18SAPS   H2X 2297   2.728   4.137   3.005  0.4764 -0.5044  0.1445
   18SAPS   H2Y 2298   2.794   4.293   3.035  0.3876  2.1534 -1.3879
   18SAPS   C23 2299   2.498   4.616   3.147 -0.8880  0.0980 -0.4742
   18SAPS   H3R 2300   2.541   4.514   3.153  0.7335  0.7332 -0.9184
   18SAPS   H3S 2301   2.395   4.599   3.109 -0.8742 -2.2955  0.3793
   18SAPS   C24 2302   2.485   4.674   3.286 -0.1117  0.3390 -0.2104
   18SAPS   H4R 2303   2.580   4.687   3.342 -0.5135 -1.6676  1.0511
   18SAPS   H4S 2304   2.437   4.599   3.353  2.3118 -0.5253  0.6630
   18SAPS   C25 2305   2.396   4.797   3.292  0.2784 -0.2640 -0.1168
   18SAPS   H5R 2306   2.360   4.850   3.202 -2.7054 -0.2808  0.9728
   18SAPS   C26 2307   2.352   4.843   3.406 -0.1762  0.1805 -0.3596
   18SAPS   H6R 2308   2.290   4.934   3.404 -0.0956  0.3667  2.0518
   18SAPS   C27 2309   2.372   4.794   3.549 -0.6210 -0.2245 -0.3373
   18SAPS   H7R 2310   2.345   4.687   3.556  0.8663 -0.4883  2.4776
   18SAPS   H7S 2311   2.290   4.833   3.614  0.7236  2.8114 -0.2872
   18SAPS   C28 2312   2.509   4.829   3.607 -0.2104 -0.2359  0.1179
   18SAPS   H8R 2313   2.583   4.859   3.531 -1.1597 -0.9813 -1.1382
   18SAPS   C29 2314   2.542   4.839   3.737 -0.0972  0.0014 -0.7636
   18SAPS   H9R 2315   2.649   4.851   3.755  0.4948  0.2403 -3.8782
   18SAPS  C210 2316   2.452   4.814   3.858 -0.8326 -0.2682 -0.9657
   18SAPS  H10R 2317   2.392   4.908   3.863  0.0081  0.2318  0.5091
   18SAPS  H10S 2318   2.518   4.807   3.947  1.1293  3.5216 -1.8893
   18SAPS  C211 2319   2.357   4.694   3.861  0.5654 -0.4618  0.0353
   18SAPS  H11R 2320   2.372   4.617   3.784 -1.4225  0.4810 -1.3906
   18SAPS  C212 2321   2.264   4.669   3.955  0.7076  0.3673 -0.0007
   18SAPS  H12R 2322   2.199   4.580   3.952  0.8089  0.3219 -2.2340
   18SAPS  C213 2323   2.234   4.750   4.072  0.5512  0.7061 -0.4604
   18SAPS  H13R 2324   2.249   4.855   4.042  0.7642  0.6563 -0.5261
   18SAPS  H13S 2325   2.313   4.730   4.147  2.7821  1.4870 -2.4481
   18SAPS  C214 2326   2.104   4.721   4.147 -0.0375  0.0831 -0.8247
   18SAPS  H14R 2327   2.036   4.644   4.110  1.1434 -0.8964 -1.0250
   18SAPS  C215 2328   2.066   4.788   4.265  0.3503  0.7910  0.0176
   18SAPS  H15R 2329   1.973   4.765   4.320 -0.4949  1.6398 -1.0203
   18SAPS  C216 2330   2.145   4.904   4.322  0.1582  0.3093 -0.2328
   18SAPS  H16R 2331   2.173   4.979   4.244 -0.0296  0.9443  0.3070
   18SAPS  H16S 2332   2.240   4.868   4.366 -1.7351  0.3140  4.3828
   18SAPS  C217 2333   2.062   4.990   4.419  0.7772  0.3165 -0.0746
   18SAPS  H17R 2334   1.954   4.994   4.392  0.5310 -0.9554  0.6620
   18SAPS  H17S 2335   2.089   5.097   4.421  1.5324  0.1173  1.3827
   18SAPS  C218 2336   2.061   4.939   4.560 -0.4164 -0.2286 -0.0786
   18SAPS  H18R 2337   2.160   4.894   4.581 -0.4076 -2.2667 -3.7261
   18SAPS  H18S 2338   1.980   4.863   4.563  1.2946 -2.0763  1.7758
   18SAPS  C219 2339   2.029   5.053   4.661  0.3780 -0.0407  0.0763
   18SAPS  H19R 2340   1.926   5.096   4.658  1.4158  2.6529 -0.7909
   18SAPS  H19S 2341   2.076   5.150   4.633 -0.3446  0.9145  2.0114
   18SAPS  C220 2342   2.077   5.036   4.796  0.3552 -0.5346 -0.5008
   18SAPS  H20R 2343   2.024   4.956   4.853 -0.1313 -0.1504 -0.4024
   18SAPS  H20S 2344   2.067   5.130   4.855 -1.8080 -1.6409  1.0225
   18SAPS  H20T 2345   2.181   4.999   4.786  0.5031 -0.5741  0.8915
   18SAPS   C33 2346   2.944   4.135   2.957 -0.0787 -0.6947 -0.1027
   18SAPS   H3X 2347   3.013   4.217   2.928 -0.6072  0.5625  1.9805
   18SAPS   H3Y 2348   2.933   4.048   2.890 -1.9938 -0.7409  0.2209
   18SAPS   C34 2349   2.973   4.093   3.102  1.3556 -0.1703 -0.7169
   18SAPS   H4X 2350   2.888   4.123   3.168  2.8237 -1.3963  1.8965
   18SAPS   H4Y 2351   3.056   4.152   3.145 -0.1189  0.7278  1.0850
   18SAPS   C35 2352   3.002   3.952   3.133  0.1045  0.5965 -0.7477
   18SAPS   H5X 2353   3.089   3.928   3.068 -0.2173 -0.3771 -0.8465
   18SAPS   H5Y 2354   2.921   3.881   3.105  0.1179 -0.0320  0.6900
   18SAPS   C36 2355   3.045   3.937   3.281  0.6167 -0.0176 -0.3510
   18SAPS   H6X 2356   2.952   3.923   3.340  0.4290 -1.8350 -0.9941
   18SAPS   H6Y 2357   3.093   4.026   3.326  0.4697  0.9028 -1.9647
   18SAPS   C37 2358   3.139   3.818   3.305  0.3847 -0.4556 -0.1354
   18SAPS   H7X 2359   3.225   3.841   3.240 -0.7020  2.1946 -0.7569
   18SAPS   H7Y 2360   3.085   3.730   3.265 -0.5570  0.0598 -0.0296
   18SAPS   C38 2361   3.165   3.797   3.455 -0.1545 -0.3414  0.7862
   18SAPS   H8X 2362   3.173   3.896   3.503  1.8924  0.0456 -0.2273
   18SAPS   H8Y 2363   3.262   3.742   3.446 -0.1639 -0.2020 -0.2803
   18SAPS   C39 2364   3.066   3.701   3.520  0.0218 -0.1363 -0.3304
   18SAPS   H9X 2365   3.069   3.606   3.464  0.4567 -2.3506  3.1629
   18SAPS   H9Y 2366   2.966   3.747   3.505 -0.4002 -0.7143  0.6520
   18SAPS  C310 2367   3.089   3.696   3.672 -0.4168  0.2253 -0.1920
   18SAPS  H10X 2368   3.171   3.621   3.686 -0.8370 -0.0916  0.6271
   18SAPS  H10Y 2369   2.989   3.658   3.702 -1.1291  2.5078  0.5276
   18SAPS  C311 2370   3.122   3.822   3.751 -0.5479  0.2156  0.2730
   18SAPS  H11X 2371   3.037   3.894   3.742 -0.9981 -0.2937  0.4061
   18SAPS  H11Y 2372   3.218   3.867   3.719 -1.5602  2.0397 -0.3659
   18SAPS  C312 2373   3.137   3.782   3.900  0.4268  0.2141  0.3304
   18SAPS  H12X 2374   3.221   3.710   3.912  0.2455  0.2404  1.9957
   18SAPS  H12Y 2375   3.040   3.739   3.933  0.4730  0.3658  0.6688
   18SAPS  C313 2376   3.159   3.909   3.990 -0.3409 -0.0657 -0.2217
   18SAPS  H13X 2377   3.071   3.976   3.980 -2.1176 -2.4329 -1.3238
   18SAPS  H13Y 2378   3.249   3.962   3.952 -0.4159  0.8247  0.7965
   18SAPS  C314 2379   3.185   3.864   4.141 -0.6071  0.3633 -0.0048
   18SAPS  H14X 2380   3.278   3.803   4.129 -2.2280 -1.8827 -2.4644
   18SAPS  H14Y 2381   3.106   3.797   4.180  0.9700 -1.0060  1.0029
   18SAPS  C315 2382   3.204   3.982   4.229 -0.2115  0.0817 -0.4208
   18SAPS  H15X 2383   3.117   4.050   4.222 -0.3693  0.2001  1.9286
   18SAPS  H15Y 2384   3.299   4.021   4.186  0.5188 -0.0108  1.0582
   18SAPS  C316 2385   3.222   3.960   4.384 -0.0505 -0.2774  0.1571
   18SAPS  H16X 2386   3.311   3.893   4.389 -0.3595 -0.7950 -0.9458
   18SAPS  H16Y 2387   3.136   3.902   4.422 -0.7932 -0.0170 -1.0797
   18SAPS  C317 2388   3.243   4.086   4.467  0.6094 -0.3629  0.5802
   18SAPS  H17X 2389   3.147   4.137   4.487 -1.3568 -3.2840 -0.6401
   18SAPS  H17Y 2390   3.304   4.168   4.422  0.7799 -0.9623 -0.3209
   18SAPS  C318 2391   3.288   4.040   4.609  0.1230  0.3140 -0.1475
   18SAPS  H18X 2392   3.225   3.962   4.656 -0.5626  1.0644  0.1951
   18SAPS  H18Y 2393   3.290   4.131   4.671 -0.2036 -0.5873  1.2221
   18SAPS  H18Z 2394   3.395   4.008   4.604 -0.1790 -1.0739  1.3940
   19SAPS     N 2395   1.159   2.192   2.305  0.3402 -0.1480 -0.5873
   19SAPS   HN1 2396   1.069   2.227   2.343  0.4203  0.1009 -0.6219
   19SAPS   HN2 2397   1.226   2.272   2.306  0.3359 -0.1465 -0.2845
   19SAPS   HN3 2398   1.133   2.171   2.207 -3.0747 -1.3833  0.4484
   19SAPS   C12 2399   1.211   2.077   2.376 -0.0903  0.1217  0.2675
   19SAPS  H12A 2400   1.126   2.020   2.410 -0.1288  0.4361  0.7131
   19SAPS   C13 2401   1.309   1.989   2.299  0.9645  0.9962 -0.0277
   19SAPS  O13A 2402   1.353   2.021   2.186 -0.3877 -0.5850  0.0115
   19SAPS  O13B 2403   1.342   1.879   2.353 -0.5353 -0.6452  0.0038
   19SAPS   C11 2404   1.287   2.121   2.504  0.0554  0.5770 -0.3331
   19SAPS  H11A 2405   1.379   2.172   2.468  0.3644  1.2207  1.2918
   19SAPS  H11B 2406   1.330   2.032   2.555 -0.7738 -0.1448 -0.8685
   19SAPS     P 2407   1.120   2.150   2.700 -0.5112 -0.2720 -0.1550
   19SAPS   O13 2408   1.036   2.256   2.746  0.2930 -0.0728  0.2189
   19SAPS   O14 2409   1.054   2.033   2.634 -0.8301 -0.0951  0.5484
   19SAPS   O12 2410   1.217   2.211   2.587 -1.0998 -0.5128  0.3352
   19SAPS   O11 2411   1.223   2.111   2.814 -0.6577 -0.5761  0.3567
   19SAPS    C1 2412   1.364   2.097   2.814  0.3176 -0.1015  0.7578
   19SAPS    HA 2413   1.394   1.995   2.781 -1.0512  0.0016 -1.0003
   19SAPS    HB 2414   1.404   2.172   2.742 -0.7719  1.4752  1.7210
   19SAPS    C2 2415   1.435   2.138   2.953  0.0165  1.1479  0.1720
   19SAPS    HS 2416   1.545   2.139   2.939 -0.2408 -0.2957 -2.6496
   19SAPS   O21 2417   1.380   2.043   3.046  0.1838  0.1127 -0.5958
   19SAPS   C21 2418   1.461   1.937   3.070  0.4260  0.8634 -0.3265
   19SAPS   O22 2419   1.568   1.909   3.020 -0.0118 -0.4687 -0.2731
   19SAPS   C22 2420   1.381   1.857   3.178 -0.1304  0.1257  0.1082
   19SAPS   H2R 2421   1.278   1.896   3.193 -0.1520  0.1405 -0.0715
   19SAPS   H2S 2422   1.388   1.750   3.149 -0.4928  0.1113  0.0670
   19SAPS    C3 2423   1.397   2.277   2.997  0.4048  0.1541  0.4589
   19SAPS    HX 2424   1.288   2.270   3.017 -0.1389  0.3381 -2.0646
   19SAPS    HY 2425   1.399   2.340   2.905  0.6149  0.3682  0.6098
   19SAPS   O31 2426   1.476   2.327   3.106 -0.1149 -0.2021  0.3335
   19SAPS   C31 2427   1.417   2.416   3.171 -0.0265 -0.2765  0.6168
   19SAPS   O32 2428   1.311   2.471   3.136 -0.1482 -0.2082 -0.4455
   19SAPS   C32 2429   1.503   2.456   3.286 -0.6074  0.1405 -0.1294
   19SAPS   H2X 2430   1.449   2.543   3.329  0.0296  1.5987 -2.1513
   19SAPS   H2Y 2431   1.604   2.487   3.254 -0.9198  0.1767 -1.0942
   19SAPS   C23 2432   1.447   1.870   3.321  0.3057 -0.3488  0.0444
   19SAPS   H3R 2433   1.415   1.972   3.353  0.4684 -1.1187  2.9006
   19SAPS   H3S 2434   1.557   1.863   3.315  0.2123 -1.3776 -0.6392
   19SAPS   C24 2435   1.390   1.764   3.422 -0.8637  0.1095  0.1086
   19SAPS   H4R 2436   1.436   1.664   3.403 -2.5556 -1.0471  1.6991
   19SAPS   H4S 2437   1.280   1.761   3.404 -0.6586 -0.1977 -1.2251
   19SAPS   C25 2438   1.423   1.810   3.563  0.1867  0.4664  0.4835
   19SAPS   H5R 2439   1.527   1.800   3.596 -0.3067  0.2686  2.0677
   19SAPS   C26 2440   1.346   1.881   3.645 -0.3573 -0.1293 -0.1460
   19SAPS   H6R 2441   1.389   1.915   3.740  0.5338  0.7980 -0.8527
   19SAPS   C27 2442   1.201   1.927   3.617  0.0904  0.1605 -0.3186
   19SAPS   H7R 2443   1.138   1.885   3.698  3.6769  0.7766  3.0776
   19SAPS   H7S 2444   1.168   1.883   3.521  0.7913 -0.2551 -0.3795
   19SAPS   C28 2445   1.188   2.079   3.616 -0.0034 -0.6466 -0.7462
   19SAPS   H8R 2446   1.193   2.132   3.712  0.6519 -1.2268 -0.4500
   19SAPS   C29 2447   1.175   2.158   3.506  0.3368  0.4194 -0.0524
   19SAPS   H9R 2448   1.181   2.267   3.515  0.8123  0.3086  1.1386
   19SAPS  C210 2449   1.159   2.114   3.360  0.0939  0.7580  0.1490
   19SAPS  H10R 2450   1.174   2.004   3.349  1.0532  0.9728 -0.8482
   19SAPS  H10S 2451   1.247   2.156   3.307  1.2794 -1.6268  0.1151
   19SAPS  C211 2452   1.028   2.151   3.298 -0.0517  0.0312 -0.1835
   19SAPS  H11R 2453   1.033   2.244   3.239 -1.0845  1.6432  2.1285
   19SAPS  C212 2454   0.907   2.091   3.320 -0.8493  0.7259 -0.1369
   19SAPS  H12R 2455   0.818   2.116   3.260 -1.3449 -2.4255 -0.9232
   19SAPS  C213 2456   0.881   1.968   3.406  0.0591 -0.3904  0.6524
   19SAPS  H13R 2457   0.952   1.952   3.490  0.7927 -1.1420 -0.1027
   19SAPS  H13S 2458   0.875   1.876   3.345  1.1975 -0.0625  0.0166
   19SAPS  C214 2459   0.740   1.984   3.459 -0.1843 -0.3724  0.1030
   19SAPS  H14R 2460   0.670   1.972   3.375  0.8880  0.3608 -0.9300
   19SAPS  C215 2461   0.698   2.007   3.588 -0.5481  0.3112  0.5354
   19SAPS  H15R 2462   0.589   2.003   3.605 -0.7587 -1.6065 -0.8403
   19SAPS  C216 2463   0.791   2.018   3.703 -0.4672 -0.1610 -0.2137
   19SAPS  H16R 2464   0.748   2.092   3.775  2.8551  0.3676  1.4098
   19SAPS  H16S 2465   0.891   2.060   3.681 -0.4755  0.9403  1.6015
   19SAPS  C217 2466   0.795   1.892   3.783 -0.2214  0.7539  0.0765
   19SAPS  H17R 2467   0.846   1.817   3.719 -2.2343 -1.4510  0.9108
   19SAPS  H17S 2468   0.693   1.853   3.805 -1.0445  2.3337 -0.8113
   19SAPS  C218 2469   0.886   1.905   3.898  0.0489 -0.1246  0.5142
   19SAPS  H18R 2470   0.854   1.994   3.957 -4.2646 -0.1195 -1.4973
   19SAPS  H18S 2471   0.988   1.927   3.858 -0.1101  0.1665  0.2617
   19SAPS  C219 2472   0.893   1.789   3.999 -0.1910  0.2446 -0.3767
   19SAPS  H19R 2473   0.986   1.810   4.056  0.0920  1.0847 -1.1228
   19SAPS  H19S 2474   0.920   1.694   3.948  1.6929  0.1570  0.6941
   19SAPS  C220 2475   0.772   1.771   4.093 -0.0726 -0.5758  0.2927
   19SAPS  H20R 2476   0.781   1.676   4.149  0.7635 -0.6031  0.1320
   19SAPS  H20S 2477   0.672   1.787   4.046  0.2592 -2.5757 -1.2101
   19SAPS  H20T 2478   0.773   1.855   4.166  1.6051 -2.0535  2.0609
   19SAPS   C33 2479   1.514   2.339   3.394 -0.9716 -0.3443 -0.1798
   19SAPS   H3X 2480   1.605   2.283   3.362 -2.5058 -0.9825 -4.0097
   19SAPS   H3Y 2481   1.429   2.269   3.379 -1.7206  0.3900  0.5479
   19SAPS   C34 2482   1.524   2.384   3.541  0.8134  0.6668  0.4490
   19SAPS   H4X 2483   1.433   2.444   3.560 -1.3893 -1.2935 -2.8344
   19SAPS   H4Y 2484   1.616   2.439   3.571  1.3890 -1.6229  3.3891
   19SAPS   C35 2485   1.516   2.260   3.634  0.4053 -0.1707 -0.3763
   19SAPS   H5X 2486   1.613   2.205   3.629 -0.5317 -1.9443  0.0194
   19SAPS   H5Y 2487   1.439   2.190   3.595  0.8051 -0.7487 -0.1521
   19SAPS   C36 2488   1.485   2.290   3.784 -0.3196  0.1184 -0.0914
   19SAPS   H6X 2489   1.450   2.192   3.825  2.6540 -0.5713  1.0036
   19SAPS   H6Y 2490   1.414   2.373   3.804  0.8945  0.6889  2.1722
   19SAPS   C37 2491   1.604   2.326   3.871  0.0096 -0.2205 -1.2058
   19SAPS   H7X 2492   1.671   2.400   3.823  1.1023 -0.8159 -0.6388
   19SAPS   H7Y 2493   1.663   2.233   3.886  0.6117  0.4371  0.7372
   19SAPS   C38 2494   1.571   2.386   4.005  0.5280 -0.2105 -0.3487
   19SAPS   H8X 2495   1.507   2.310   4.053  1.6230 -1.6759 -1.1240
   19SAPS   H8Y 2496   1.510   2.478   3.994  3.1894  1.5403 -1.5652
   19SAPS   C39 2497   1.697   2.402   4.084 -0.3533  0.8973 -0.1415
   19SAPS   H9X 2498   1.783   2.449   4.031 -0.3142  0.9767 -0.0074
   19SAPS   H9Y 2499   1.744   2.302   4.098  1.3104  1.3456 -2.0646
   19SAPS  C310 2500   1.681   2.460   4.224  0.4199 -0.3409 -1.0402
   19SAPS  H10X 2501   1.606   2.542   4.214 -0.8780 -1.0204  2.0916
   19SAPS  H10Y 2502   1.773   2.514   4.255  0.0318  1.3257 -2.6025
   19SAPS  C311 2503   1.637   2.356   4.332  0.2505  1.1143  0.6118
   19SAPS  H11X 2504   1.697   2.263   4.321  0.4804  1.3263  0.0515
   19SAPS  H11Y 2505   1.535   2.314   4.318  1.1659 -1.5339  1.3738
   19SAPS  C312 2506   1.633   2.399   4.481 -0.1830 -0.3743  0.3931
   19SAPS  H12X 2507   1.595   2.503   4.489  0.4935 -0.2192  1.9723
   19SAPS  H12Y 2508   1.736   2.403   4.521 -0.2125  0.5367  0.4122
   19SAPS  C313 2509   1.557   2.295   4.572 -0.5247 -1.2758 -1.2251
   19SAPS  H13X 2510   1.609   2.198   4.579 -2.4506 -2.2943 -0.0912
   19SAPS  H13Y 2511   1.465   2.265   4.516 -1.3834  1.2556 -1.3500
   19SAPS  C314 2512   1.513   2.353   4.706  0.0381  0.6474 -0.4482
   19SAPS  H14X 2513   1.448   2.440   4.682 -2.2127 -0.7558  0.2725
   19SAPS  H14Y 2514   1.609   2.383   4.754 -0.0838  0.7380 -0.2582
   19SAPS  C315 2515   1.430   2.251   4.777 -0.0049  0.5263 -0.3950
   19SAPS  H15X 2516   1.487   2.161   4.807 -1.1183 -0.0660 -0.0075
   19SAPS  H15Y 2517   1.335   2.221   4.727 -0.0939  3.3836 -2.1638
   19SAPS  C316 2518   1.389   2.299   4.925  0.2080 -0.4420 -0.4077
   19SAPS  H16X 2519   1.481   2.338   4.973  0.2910 -0.1053 -0.8384
   19SAPS  H16Y 2520   1.357   2.206   4.976  0.2635 -0.3583 -0.2206
   19SAPS  C317 2521   1.274   2.400   4.927 -0.6088 -0.0343 -0.5700
   19SAPS  H17X 2522   1.186   2.353   4.879  0.1688 -2.4462  0.1977
   19SAPS  H17Y 2523   1.312   2.492   4.877 -0.9803  0.7828  0.5848
   19SAPS  C318 2524   1.231   2.433   5.073  0.1937  0.5038  0.4437
   19SAPS  H18X 2525   1.223   2.340   5.134  0.4173  0.5765  0.5873
   19SAPS  H18Y 2526   1.136   2.488   5.090 -0.4307  0.7077 -3.0477
   19SAPS  H18Z 2527   1.313   2.489   5.124  0.3407  1.1921 -0.5142
   20SAPS     N 2528   0.782   3.657   2.278  0.0835  0.2302  0.2012
   20SAPS   HN1 2529   0.721   3.692   2.355  2.5677 -0.3700  2.5959
   20SAPS   HN2 2530   0.722   3.600   2.215  0.9682  1.6878 -2.0716
   20SAPS   HN3 2531   0.849   3.592   2.323  0.7276  0.3412 -0.5709
   20SAPS   C12 2532   0.844   3.765   2.196 -0.4750  0.5245 -0.3657
   20SAPS  H12A 2533   0.917   3.721   2.130 -1.9796  0.6613 -2.2036
   20SAPS   C13 2534   0.748   3.867   2.127 -1.4195 -0.1440 -0.5977
   20SAPS  O13A 2535   0.625   3.839   2.120 -0.1007  0.1664 -0.3290
   20SAPS  O13B 2536   0.797   3.965   2.069  0.3145 -0.2649 -0.0292
   20SAPS   C11 2537   0.936   3.848   2.294 -0.4667  0.4130 -0.1823
   20SAPS  H11A 2538   0.878   3.901   2.372 -1.2874  0.2499 -0.6703
   20SAPS  H11B 2539   0.991   3.926   2.237  0.8556  0.9469  1.7378
   20SAPS     P 2540   1.154   3.821   2.439 -0.1630 -0.2824 -0.1517
   20SAPS   O13 2541   1.255   3.717   2.468  0.2153  0.1477 -0.2860
   20SAPS   O14 2542   1.201   3.948   2.375  0.0511 -0.1333 -0.8359
   20SAPS   O12 2543   1.034   3.766   2.352 -0.5758 -0.2302 -0.3752
   20SAPS   O11 2544   1.092   3.852   2.578 -0.7209 -0.0955 -0.1995
   20SAPS    C1 2545   0.984   3.788   2.648 -0.0673 -0.1420  0.3969
   20SAPS    HA 2546   0.887   3.829   2.614  0.6323  1.9961  0.8430
   20SAPS    HB 2547   0.992   3.677   2.641  2.1064 -0.0111 -0.0559
   20SAPS    C2 2548   0.990   3.831   2.795 -0.5965  0.0469  0.1159
   20SAPS    HS 2549   0.926   3.752   2.840  0.0166 -0.7206 -0.3184
   20SAPS   O21 2550   0.944   3.967   2.822  0.1529  0.0575  0.0449
   20SAPS   C21 2551   0.816   3.974   2.864  0.4880  0.1750  0.7531
   20SAPS   O22 2552   0.744   3.874   2.885 -0.3743  0.5575  0.8758
   20SAPS   C22 2553   0.762   4.114   2.874 -0.2883 -0.5528  0.0385
   20SAPS   H2R 2554   0.837   4.184   2.917  0.7682 -1.6302  0.0042
   20SAPS   H2S 2555   0.747   4.152   2.771  0.4774 -2.1909 -0.7157
   20SAPS    C3 2556   1.135   3.806   2.859  0.6121 -0.0371 -0.4693
   20SAPS    HX 2557   1.193   3.897   2.832  1.9256 -0.6878  0.0962
   20SAPS    HY 2558   1.177   3.722   2.801  0.6415  0.8200 -1.7329
   20SAPS   O31 2559   1.123   3.781   3.005 -0.1574 -0.1816  0.3493
   20SAPS   C31 2560   1.233   3.734   3.055  0.0393  0.8359 -0.5355
   20SAPS   O32 2561   1.341   3.741   3.004 -0.4776  0.1056  0.3043
   20SAPS   C32 2562   1.211   3.663   3.186  0.5540  0.6272  0.1984
   20SAPS   H2X 2563   1.126   3.601   3.152  2.0135 -0.6902 -1.1949
   20SAPS   H2Y 2564   1.178   3.736   3.264 -1.9460 -0.0489 -0.1401
   20SAPS   C23 2565   0.631   4.124   2.957 -0.6496 -0.2230  0.2353
   20SAPS   H3R 2566   0.569   4.033   2.941  0.9513 -1.1947 -0.8001
   20SAPS   H3S 2567   0.576   4.213   2.921 -0.6308 -0.7627 -1.1742
   20SAPS   C24 2568   0.656   4.144   3.110  0.2746 -0.2409  0.5663
   20SAPS   H4R 2569   0.559   4.170   3.157 -0.2747 -2.0390  0.5343
   20SAPS   H4S 2570   0.726   4.229   3.120 -1.2745  1.3323 -1.0180
   20SAPS   C25 2571   0.707   4.016   3.183 -0.0904  0.3742 -0.0781
   20SAPS   H5R 2572   0.634   3.935   3.196 -1.1423  1.1312 -1.0571
   20SAPS   C26 2573   0.822   4.015   3.249  0.1283  0.8794  0.2861
   20SAPS   H6R 2574   0.837   3.926   3.312 -1.0264  0.4876  0.0343
   20SAPS   C27 2575   0.938   4.109   3.247  0.0010 -0.9998 -0.4533
   20SAPS   H7R 2576   0.915   4.181   3.328 -2.0371  0.1044 -1.9118
   20SAPS   H7S 2577   0.934   4.170   3.154  2.6379 -1.5069 -0.9774
   20SAPS   C28 2578   1.077   4.046   3.259  0.3280  0.0050  0.0247
   20SAPS   H8R 2579   1.126   4.015   3.166  3.0025  2.3536  0.4922
   20SAPS   C29 2580   1.147   4.018   3.375 -0.5790 -0.3229 -0.1778
   20SAPS   H9R 2581   1.249   3.975   3.371 -0.4863 -0.1670  0.4049
   20SAPS  C210 2582   1.099   4.043   3.516 -0.1794  0.2833  0.4422
   20SAPS  H10R 2583   0.989   4.055   3.519 -0.2291 -0.3169  2.8227
   20SAPS  H10S 2584   1.142   4.141   3.549 -0.0247  0.6298 -0.7185
   20SAPS  C211 2585   1.124   3.937   3.620 -0.2648  0.2382  0.0541
   20SAPS  H11R 2586   1.190   3.973   3.700  0.2846  0.9668 -0.6958
   20SAPS  C212 2587   1.095   3.806   3.615 -0.1335  0.1027  0.6703
   20SAPS  H12R 2588   1.126   3.746   3.702  0.3732  0.5053  0.7693
   20SAPS  C213 2589   1.012   3.738   3.509  0.1005 -0.1282 -0.5489
   20SAPS  H13R 2590   1.077   3.669   3.450  0.6504  0.4586 -0.6337
   20SAPS  H13S 2591   0.971   3.807   3.432  0.4456  0.3851 -0.2709
   20SAPS  C214 2592   0.897   3.658   3.563 -0.5726 -0.1943  0.7849
   20SAPS  H14R 2593   0.876   3.687   3.667 -1.6648 -0.3812  0.6298
   20SAPS  C215 2594   0.825   3.558   3.495  0.3941  0.4656 -0.5838
   20SAPS  H15R 2595   0.731   3.515   3.533  0.7949 -1.1250 -1.3235
   20SAPS  C216 2596   0.865   3.505   3.361  0.0538  0.6252 -0.2377
   20SAPS  H16R 2597   0.872   3.395   3.372  2.2503  0.6450 -0.9207
   20SAPS  H16S 2598   0.971   3.534   3.342  0.2977 -0.9282 -1.4129
   20SAPS  C217 2599   0.777   3.538   3.239 -0.9984  0.2544  0.3360
   20SAPS  H17R 2600   0.756   3.647   3.229 -0.7953  0.3358  0.7896
   20SAPS  H17S 2601   0.672   3.502   3.240 -1.7919  2.2654 -1.3721
   20SAPS  C218 2602   0.849   3.484   3.108  0.1677 -0.2304  0.2174
   20SAPS  H18R 2603   0.888   3.381   3.119  3.5317  0.6837 -1.5385
   20SAPS  H18S 2604   0.938   3.545   3.081 -0.1321 -0.0724 -0.4457
   20SAPS  C219 2605   0.758   3.480   2.984 -0.2594 -0.7002 -0.2362
   20SAPS  H19R 2606   0.708   3.576   2.958 -0.5114 -0.8876 -0.4538
   20SAPS  H19S 2607   0.677   3.412   3.017 -2.5833  1.3062 -1.4721
   20SAPS  C220 2608   0.829   3.419   2.857 -0.3217 -0.0853 -0.0304
   20SAPS  H20R 2609   0.888   3.327   2.873 -2.4628 -1.8914 -1.8698
   20SAPS  H20S 2610   0.898   3.491   2.808 -1.3598 -0.2397 -1.8147
   20SAPS  H20T 2611   0.755   3.394   2.778  1.2033 -1.4740 -1.0896
   20SAPS   C33 2612   1.332   3.581   3.237  0.8520 -0.3512  1.0162
   20SAPS   H3X 2613   1.434   3.625   3.241  0.9110 -0.6039  3.3445
   20SAPS   H3Y 2614   1.348   3.493   3.170 -1.3471 -0.8210  1.0295
   20SAPS   C34 2615   1.317   3.537   3.382 -0.1064 -0.1428 -0.4224
   20SAPS   H4X 2616   1.213   3.498   3.389 -0.6368  1.0989 -1.1346
   20SAPS   H4Y 2617   1.333   3.623   3.451  0.1876  0.9328 -1.7963
   20SAPS   C35 2618   1.426   3.438   3.428 -0.3910  0.1041  0.0386
   20SAPS   H5X 2619   1.522   3.492   3.436 -1.0697  1.2331  0.9167
   20SAPS   H5Y 2620   1.432   3.361   3.348  0.1757 -0.6717  0.8022
   20SAPS   C36 2621   1.391   3.369   3.566  0.3727 -0.5182 -0.0184
   20SAPS   H6X 2622   1.468   3.294   3.595  0.3196 -1.3675 -1.9312
   20SAPS   H6Y 2623   1.298   3.308   3.571  0.1068 -0.0396  1.3215
   20SAPS   C37 2624   1.391   3.478   3.678 -0.3185  0.9084  1.0834
   20SAPS   H7X 2625   1.288   3.519   3.668 -0.0076  1.1864 -1.5277
   20SAPS   H7Y 2626   1.472   3.550   3.654  0.3710 -1.0734 -3.2829
   20SAPS   C38 2627   1.412   3.415   3.816  0.3025 -0.5027 -0.3158
   20SAPS   H8X 2628   1.503   3.353   3.805  0.0492 -0.6260 -2.0049
   20SAPS   H8Y 2629   1.321   3.356   3.839  0.8336 -0.9922  0.5425
   20SAPS   C39 2630   1.421   3.518   3.934 -0.4421  0.1276  0.0527
   20SAPS   H9X 2631   1.471   3.606   3.888  0.3686 -0.1564  0.3690
   20SAPS   H9Y 2632   1.475   3.471   4.019 -1.2180 -0.0240  0.4711
   20SAPS  C310 2633   1.282   3.559   3.993 -0.3748 -0.3208 -0.3953
   20SAPS  H10X 2634   1.232   3.468   4.033 -1.1675  0.3549  0.1699
   20SAPS  H10Y 2635   1.214   3.610   3.922  0.0434  2.8792  1.2920
   20SAPS  C311 2636   1.303   3.651   4.113 -0.4131  0.4418 -0.0136
   20SAPS  H11X 2637   1.214   3.714   4.131  1.2124  2.8605 -0.0082
   20SAPS  H11Y 2638   1.378   3.730   4.093 -0.3870  0.1117 -1.3602
   20SAPS  C312 2639   1.337   3.570   4.246  0.3139  0.0346 -0.4179
   20SAPS  H12X 2640   1.433   3.515   4.234  0.2329  0.2522 -2.4385
   20SAPS  H12Y 2641   1.247   3.509   4.271 -0.2570  0.2160 -1.9180
   20SAPS  C313 2642   1.344   3.678   4.359  0.3602 -0.0091 -0.7338
   20SAPS  H13X 2643   1.245   3.726   4.371  1.1098  1.3299  0.4236
   20SAPS  H13Y 2644   1.409   3.760   4.324 -0.6908  1.1715  0.0213
   20SAPS  C314 2645   1.392   3.618   4.491  0.3597 -0.0539  0.5599
   20SAPS  H14X 2646   1.487   3.562   4.482  1.3080  1.5966 -0.3136
   20SAPS  H14Y 2647   1.311   3.552   4.528  0.6984 -1.1583 -0.5940
   20SAPS  C315 2648   1.409   3.730   4.594  0.0913  0.1038  0.6656
   20SAPS  H15X 2649   1.325   3.802   4.603  0.0590 -0.0226  1.4487
   20SAPS  H15Y 2650   1.503   3.785   4.573  0.4082 -0.6824 -0.0387
   20SAPS  C316 2651   1.436   3.675   4.734 -0.0330  0.2666  0.6382
   20SAPS  H16X 2652   1.504   3.588   4.725  1.1736  1.2386  0.0749
   20SAPS  H16Y 2653   1.337   3.638   4.769 -0.9821  1.0483 -1.0944
   20SAPS  C317 2654   1.479   3.784   4.838  0.1480 -0.0414 -0.5299
   20SAPS  H17X 2655   1.389   3.850   4.835  0.8878  0.9716 -0.8588
   20SAPS  H17Y 2656   1.564   3.847   4.804 -0.2442  0.9206  0.2217
   20SAPS  C318 2657   1.517   3.720   4.972  0.1543  0.0317  0.7246
   20SAPS  H18X 2658   1.554   3.792   5.048 -1.1889  0.7666  0.7147
   20SAPS  H18Y 2659   1.587   3.639   4.942  0.3716  0.2778  0.5571
   20SAPS  H18Z 2660   1.427   3.667   5.009 -0.2850 -1.7227 -2.5290
   21CHL1    C3 2661   4.461   4.075   6.472 -0.2946 -0.0069 -0.2153
   21CHL1    H3 2662   4.554   4.050   6.417  1.8618 -0.7215  3.4175
   21CHL1    O3 2663   4.487   4.051   6.614  0.0176 -0.6673 -0.4473
   21CHL1   H3' 2664   4.541   4.130   6.620 -3.0179  1.6697 -1.1347
   21CHL1    C4 2665   4.411   4.217   6.439  0.3034 -0.0521 -0.2551
   21CHL1   H4A 2666   4.309   4.242   6.475  0.0026  2.1413 -2.4213
   21CHL1   H4B 2667   4.483   4.279   6.495  2.2417 -2.5523  0.2294
   21CHL1    C5 2668   4.407   4.219   6.276  0.7706 -0.6476  0.3594
   21CHL1    C6 2669   4.492   4.294   6.200  0.4663 -0.5932 -0.3331
   21CHL1    H6 2670   4.546   4.377   6.250 -1.5544  1.0450 -0.7339
   21CHL1    C7 2671   4.490   4.308   6.049  0.2938 -0.5257  0.8410
   21CHL1   H7A 2672   4.477   4.413   6.016 -0.4747 -0.2462  1.9571
   21CHL1   H7B 2673   4.583   4.267   6.005 -1.1627 -0.7590 -2.2500
   21CHL1    C8 2674   4.367   4.235   5.988  0.2132  0.3175 -0.2021
   21CHL1    H8 2675   4.282   4.303   6.009  0.7825  0.8771  0.3495
   21CHL1   C14 2676   4.399   4.205   5.844  0.2317  0.5351  0.5941
   21CHL1   H14 2677   4.474   4.123   5.853 -2.5823 -2.1180  2.0655
   21CHL1   C15 2678   4.462   4.318   5.758 -0.2511 -1.0574 -0.2309
   21CHL1  H15A 2679   4.407   4.411   5.781  0.5961 -1.0231  1.8610
   21CHL1  H15B 2680   4.569   4.323   5.787  0.0429 -1.1955 -1.2521
   21CHL1   C16 2681   4.425   4.276   5.616 -0.5337  0.5958  1.1652
   21CHL1  H16A 2682   4.352   4.350   5.575 -1.9977 -0.4834  1.7291
   21CHL1  H16B 2683   4.513   4.263   5.550 -0.0625 -3.8608  2.3528
   21CHL1   C17 2684   4.341   4.143   5.623  0.3747 -0.0127  0.4707
   21CHL1   H17 2685   4.418   4.063   5.621 -2.2020 -2.6566 -1.0275
   21CHL1   C13 2686   4.288   4.139   5.770  0.1436 -0.5356 -0.1582
   21CHL1   C18 2687   4.158   4.229   5.766 -0.2688  0.1562 -0.0129
   21CHL1  H18A 2688   4.082   4.175   5.707 -0.0282 -0.9391  0.6604
   21CHL1  H18B 2689   4.122   4.261   5.866  0.2350  0.1307  0.1786
   21CHL1  H18C 2690   4.181   4.327   5.718 -1.7055 -0.4697 -2.0936
   21CHL1   C12 2691   4.265   4.002   5.834  0.0680 -0.1324  0.2557
   21CHL1  H12A 2692   4.180   3.957   5.779  0.6247 -1.2889  0.3107
   21CHL1  H12B 2693   4.349   3.931   5.822  0.4670  0.3554  0.1207
   21CHL1   C11 2694   4.233   4.022   5.986 -0.0469  0.1801 -0.1331
   21CHL1  H11A 2695   4.134   4.073   5.992  0.1020  0.4632 -0.0639
   21CHL1  H11B 2696   4.218   3.918   6.022  1.1432  0.2508  0.5934
   21CHL1    C9 2697   4.340   4.101   6.060  0.4464  0.0846 -0.2418
   21CHL1    H9 2698   4.431   4.040   6.041  0.0498 -0.4261 -0.5123
   21CHL1   C10 2699   4.309   4.113   6.210 -0.6020 -0.7514 -0.1341
   21CHL1   C19 2700   4.162   4.156   6.226 -0.1940  0.1071 -0.2283
   21CHL1  H19A 2701   4.142   4.239   6.155 -1.4686 -0.0382 -0.0703
   21CHL1  H19B 2702   4.092   4.075   6.198 -1.5473  0.9704  0.5437
   21CHL1  H19C 2703   4.144   4.192   6.330 -0.7654 -0.5676 -0.0878
   21CHL1    C1 2704   4.332   3.975   6.271  0.7602 -0.6240 -0.4998
   21CHL1   H1A 2705   4.250   3.905   6.246  1.4821 -2.3482  1.6598
   21CHL1   H1B 2706   4.424   3.924   6.233  1.2840  0.6330 -0.9721
   21CHL1    C2 2707   4.341   3.983   6.426 -0.4000 -0.5148  0.1123
   21CHL1   H2A 2708   4.352   3.879   6.466 -0.6000 -1.0174 -1.0925
   21CHL1   H2B 2709   4.247   4.024   6.467 -0.0373  2.0355 -1.4468
   21CHL1   C20 2710   4.245   4.123   5.496  0.2710  0.0024  0.1959
   21CHL1   H20 2711   4.148   4.177   5.498 -0.0040 -0.5092  0.9666
   21CHL1   C21 2712   4.197   3.977   5.496 -0.5560  0.0519 -1.1453
   21CHL1  H21A 2713   4.291   3.921   5.513 -0.0171  1.5039  1.1969
   21CHL1  H21B 2714   4.144   3.937   5.407 -2.2425 -0.6039  0.1034
   21CHL1  H21C 2715   4.121   3.962   5.576 -2.0230  1.3792 -2.2170
   21CHL1   C22 2716   4.307   4.166   5.368 -0.1077 -0.0372 -0.1872
   21CHL1  H22A 2717   4.357   4.264   5.380  2.5482 -1.4360  1.2188
   21CHL1  H22B 2718   4.395   4.099   5.349  0.0211  0.3827 -1.1207
   21CHL1   C23 2719   4.217   4.139   5.242 -0.2299 -0.9261 -0.5250
   21CHL1  H23A 2720   4.154   4.048   5.247  0.3409 -1.4714 -2.4640
   21CHL1  H23B 2721   4.145   4.224   5.242 -0.2518 -0.8852  1.3984
   21CHL1   C24 2722   4.308   4.127   5.118  0.4756  0.0101 -0.3757
   21CHL1  H24A 2723   4.362   4.223   5.108  0.4379  0.3201  1.8012
   21CHL1  H24B 2724   4.383   4.046   5.126  0.1152 -0.3590 -0.6981
   21CHL1   C25 2725   4.236   4.102   4.986 -0.1226  0.6975 -0.0483
   21CHL1   H25 2726   4.151   4.033   5.003 -0.1396 -0.1996 -3.1398
   21CHL1   C26 2727   4.166   4.218   4.922  0.3877 -0.3909 -0.2947
   21CHL1  H26A 2728   4.247   4.282   4.881  0.1574 -0.3234 -0.6485
   21CHL1  H26B 2729   4.108   4.188   4.832  0.2885  1.4179 -0.8804
   21CHL1  H26C 2730   4.109   4.278   4.997  3.7962  3.8275 -0.7066
   21CHL1   C27 2731   4.321   4.025   4.875  0.1580 -0.3344 -0.2071
   21CHL1  H27A 2732   4.254   3.988   4.795  1.0446 -1.4548 -0.4511
   21CHL1  H27B 2733   4.385   4.102   4.828  0.7374 -0.5490  0.2271
   21CHL1  H27C 2734   4.388   3.943   4.906  0.7795 -0.3165 -1.4482
   22CHL1    C3 2735   5.797   3.740   6.315 -0.0661  0.8435 -0.7737
   22CHL1    H3 2736   5.902   3.703   6.311 -0.4605 -0.5298  0.4902
   22CHL1    O3 2737   5.762   3.736   6.453 -0.1905  0.4608 -0.0034
   22CHL1   H3' 2738   5.786   3.824   6.483  0.2106 -0.2353  1.8321
   22CHL1    C4 2739   5.798   3.882   6.270  0.4758 -0.5505  0.6989
   22CHL1   H4A 2740   5.700   3.930   6.288  1.5750  2.9314 -1.5737
   22CHL1   H4B 2741   5.870   3.945   6.326  1.6239 -3.7001  3.0534
   22CHL1    C5 2742   5.826   3.879   6.122 -0.3765  0.2920  0.4142
   22CHL1    C6 2743   5.926   3.949   6.075  0.1363 -0.2187 -0.0510
   22CHL1    H6 2744   5.976   4.013   6.150 -0.4738 -2.0129  1.9563
   22CHL1    C7 2745   5.961   3.953   5.931  0.2122  0.1091 -0.5076
   22CHL1   H7A 2746   6.001   4.053   5.902  2.6091 -0.3321  1.0605
   22CHL1   H7B 2747   6.049   3.891   5.903  0.5690 -0.0879  0.9940
   22CHL1    C8 2748   5.846   3.911   5.837  0.6265  0.7709 -0.0869
   22CHL1    H8 2749   5.771   3.993   5.845  0.0835  0.1682  1.3156
   22CHL1   C14 2750   5.902   3.886   5.700  0.0840 -0.0288 -0.0455
   22CHL1   H14 2751   5.970   3.799   5.694 -0.3637 -0.3177 -1.2251
   22CHL1   C15 2752   5.977   4.003   5.630 -0.7397 -0.2639  0.3749
   22CHL1  H15A 2753   5.944   4.109   5.633  1.3726  0.9423 -5.4121
   22CHL1  H15B 2754   6.081   4.009   5.668 -0.2605 -0.3552 -0.8734
   22CHL1   C16 2755   5.983   3.963   5.478  0.4153  0.2395 -0.9348
   22CHL1  H16A 2756   5.944   4.053   5.426 -0.8234 -0.5082 -1.3546
   22CHL1  H16B 2757   6.085   3.924   5.458 -0.6473 -2.6893 -1.2050
   22CHL1   C17 2758   5.877   3.847   5.459  0.2055 -0.6383 -0.8610
   22CHL1   H17 2759   5.929   3.750   5.469 -0.2066 -0.8102 -0.3264
   22CHL1   C13 2760   5.798   3.853   5.596 -0.0598 -0.0765 -0.3936
   22CHL1   C18 2761   5.698   3.975   5.580 -0.1363  0.2603 -0.4788
   22CHL1  H18A 2762   5.747   4.065   5.536 -0.1985  0.6909  0.3261
   22CHL1  H18B 2763   5.608   3.959   5.516 -0.1022  1.6761 -0.9083
   22CHL1  H18C 2764   5.666   4.017   5.677  1.3351  1.0456 -0.3017
   22CHL1   C12 2765   5.732   3.717   5.636  0.0556 -0.7606 -1.0085
   22CHL1  H12A 2766   5.648   3.689   5.570 -0.3894  1.3236 -1.4034
   22CHL1  H12B 2767   5.806   3.634   5.632  0.7001 -0.2834  0.3694
   22CHL1   C11 2768   5.682   3.721   5.787  0.2569 -0.1696 -0.6136
   22CHL1  H11A 2769   5.591   3.784   5.792  0.8387  0.7572 -1.5383
   22CHL1  H11B 2770   5.650   3.620   5.821  2.0183  0.3818  3.3487
   22CHL1    C9 2771   5.789   3.778   5.886  0.2107 -0.5035  0.2156
   22CHL1    H9 2772   5.866   3.699   5.900 -2.0919 -2.8190  0.6701
   22CHL1   C10 2773   5.733   3.787   6.032  0.2779  0.3331 -0.0317
   22CHL1   C19 2774   5.600   3.861   6.028 -0.1029 -0.7587 -0.8136
   22CHL1  H19A 2775   5.524   3.802   5.973 -0.0816  0.3822 -2.1331
   22CHL1  H19B 2776   5.564   3.885   6.130 -0.1029  0.2515 -1.0371
   22CHL1  H19C 2777   5.612   3.959   5.975  0.1732  0.2830  1.0954
   22CHL1    C1 2778   5.722   3.646   6.095 -0.0713 -0.0413 -0.8162
   22CHL1   H1A 2779   5.656   3.581   6.033  1.3320  0.1174 -2.5683
   22CHL1   H1B 2780   5.818   3.591   6.095 -0.2118 -0.3066  0.6878
   22CHL1    C2 2781   5.696   3.650   6.242 -0.0668  0.4179  0.2084
   22CHL1   H2A 2782   5.688   3.552   6.292  1.3342  0.8417  1.3491
   22CHL1   H2B 2783   5.598   3.698   6.263  0.2462  1.6586 -1.0222
   22CHL1   C20 2784   5.810   3.841   5.325 -0.7337  0.2151  1.1069
   22CHL1   H20 2785   5.755   3.934   5.297  0.2993  0.2489 -1.0945
   22CHL1   C21 2786   5.729   3.711   5.317  0.2940  0.0115 -0.1130
   22CHL1  H21A 2787   5.694   3.682   5.215  0.7402  0.2316 -0.3281
   22CHL1  H21B 2788   5.627   3.727   5.360  1.1049  1.2843  1.4375
   22CHL1  H21C 2789   5.784   3.627   5.365  0.5085  0.7724  1.0052
   22CHL1   C22 2790   5.910   3.825   5.211  0.5201 -0.4770 -0.4113
   22CHL1  H22A 2791   5.988   3.904   5.217  0.7525 -0.6796 -0.7766
   22CHL1  H22B 2792   5.965   3.730   5.229  0.7108 -0.2924 -0.0180
   22CHL1   C23 2793   5.842   3.850   5.070  0.3506 -0.2473  0.0169
   22CHL1  H23A 2794   5.775   3.765   5.046 -1.0465  1.2514 -1.7096
   22CHL1  H23B 2795   5.790   3.947   5.058  0.6669 -0.1956 -1.0986
   22CHL1   C24 2796   5.954   3.841   4.964  0.0299 -0.4146  0.2835
   22CHL1  H24A 2797   6.049   3.878   5.009 -0.1961  0.7713 -0.1603
   22CHL1  H24B 2798   5.966   3.732   4.948 -1.8000 -0.4987 -0.8096
   22CHL1   C25 2799   5.920   3.898   4.826 -0.0586  0.3289  0.0747
   22CHL1   H25 2800   5.886   4.003   4.838  0.7470  0.5424  0.5716
   22CHL1   C26 2801   6.049   3.902   4.739 -0.6264  0.2537  0.5568
   22CHL1  H26A 2802   6.125   3.967   4.787  0.8087 -1.8802  1.3510
   22CHL1  H26B 2803   6.094   3.803   4.716 -0.3193  0.4979  0.1176
   22CHL1  H26C 2804   6.019   3.943   4.640 -0.2238 -0.0631  0.3011
   22CHL1   C27 2805   5.819   3.811   4.740 -0.5457  0.3482  0.0466
   22CHL1  H27A 2806   5.741   3.772   4.809  0.5738 -1.4416  0.3753
   22CHL1  H27B 2807   5.782   3.872   4.655 -1.4299 -1.7458 -1.1499
   22CHL1  H27C 2808   5.870   3.717   4.708 -1.2614 -0.5457  1.4035
   23CHL1    C3 2809   3.812   3.759   6.707  0.5061  0.4352 -0.2249
   23CHL1    H3 2810   3.715   3.705   6.711  0.9873 -0.4774 -0.4612
   23CHL1    O3 2811   3.847   3.790   6.844  0.2117 -0.1712  0.4931
   23CHL1   H3' 2812   3.881   3.713   6.891  1.0493  0.5432  1.0783
   23CHL1    C4 2813   3.911   3.665   6.638 -0.5501 -0.4425  0.0171
   23CHL1   H4A 2814   4.016   3.698   6.649  0.4290 -2.7510 -1.5435
   23CHL1   H4B 2815   3.905   3.571   6.696  1.3953 -0.5514  0.0941
   23CHL1    C5 2816   3.882   3.644   6.490  0.5165 -0.2668 -0.1395
   23CHL1    C6 2817   3.869   3.516   6.438 -0.2491 -0.6063 -1.2347
   23CHL1    H6 2818   3.889   3.432   6.506 -0.8567 -0.8501 -1.3506
   23CHL1    C7 2819   3.841   3.484   6.294  0.7316  0.2562  0.4128
   23CHL1   H7A 2820   3.893   3.392   6.258  1.0570  0.6764 -0.2229
   23CHL1   H7B 2821   3.732   3.466   6.290  0.6064  0.4313  2.3142
   23CHL1    C8 2822   3.877   3.609   6.204 -0.1199  0.2250 -0.3279
   23CHL1    H8 2823   3.988   3.604   6.204 -0.0807 -0.4457  2.2390
   23CHL1   C14 2824   3.825   3.589   6.056 -0.3952  0.5223  0.2630
   23CHL1   H14 2825   3.717   3.566   6.068 -0.0835 -0.9067  0.5383
   23CHL1   C15 2826   3.885   3.482   5.972 -0.9229 -0.1959 -0.1337
   23CHL1  H15A 2827   3.993   3.462   5.991 -0.8063  0.3964 -0.1600
   23CHL1  H15B 2828   3.821   3.393   5.989 -2.2005  0.0076 -3.2659
   23CHL1   C16 2829   3.860   3.518   5.826  0.7500  0.2462 -0.2978
   23CHL1  H16A 2830   3.947   3.497   5.761  1.7214 -0.1627  1.0712
   23CHL1  H16B 2831   3.788   3.445   5.785 -0.4371  0.7224  0.8736
   23CHL1   C17 2832   3.801   3.661   5.826  0.2992  0.3207  0.2151
   23CHL1   H17 2833   3.690   3.673   5.833  0.4518  1.1733  1.7688
   23CHL1   C13 2834   3.845   3.715   5.961 -0.3323  0.3586  0.1288
   23CHL1   C18 2835   3.994   3.760   5.950  0.2926 -0.5078 -0.4092
   23CHL1  H18A 2836   3.999   3.864   5.913 -1.3012 -0.5808 -0.8899
   23CHL1  H18B 2837   4.045   3.765   6.049 -0.3422  1.7028 -0.1412
   23CHL1  H18C 2838   4.043   3.685   5.884 -0.4762 -0.3540 -1.1745
   23CHL1   C12 2839   3.759   3.824   6.022  0.6933 -0.0852  0.2779
   23CHL1  H12A 2840   3.758   3.925   5.975  1.3727 -0.2235 -0.0347
   23CHL1  H12B 2841   3.653   3.791   6.021  0.2433  1.2899  0.3010
   23CHL1   C11 2842   3.802   3.855   6.168  0.9137  1.2934 -0.1400
   23CHL1  H11A 2843   3.898   3.911   6.161  0.7395  1.4293 -2.2046
   23CHL1  H11B 2844   3.723   3.917   6.215 -1.0264 -0.4820 -0.9300
   23CHL1    C9 2845   3.809   3.732   6.263 -0.2078 -0.2336 -0.2107
   23CHL1    H9 2846   3.702   3.706   6.279 -0.0401 -1.3819 -0.8280
   23CHL1   C10 2847   3.866   3.767   6.405 -0.1434 -0.3450 -0.1509
   23CHL1   C19 2848   4.009   3.820   6.401 -0.5175 -0.5738 -0.0088
   23CHL1  H19A 2849   4.079   3.737   6.375 -1.2346 -1.0536 -0.4336
   23CHL1  H19B 2850   4.019   3.914   6.343 -1.0234 -1.3886 -1.4541
   23CHL1  H19C 2851   4.039   3.849   6.504  0.1169 -0.6074 -0.1810
   23CHL1    C1 2852   3.769   3.861   6.477  0.5096  0.6200 -0.5893
   23CHL1   H1A 2853   3.775   3.958   6.423  0.9894  0.7194 -0.3550
   23CHL1   H1B 2854   3.663   3.836   6.456  0.7724 -1.0596 -0.0313
   23CHL1    C2 2855   3.792   3.885   6.623  0.4772  0.2395  0.3944
   23CHL1   H2A 2856   3.701   3.931   6.667 -0.4664 -0.3386 -0.8954
   23CHL1   H2B 2857   3.882   3.948   6.641  1.9322 -1.9028  0.9121
   23CHL1   C20 2858   3.850   3.736   5.704  0.2954 -0.4101  0.8373
   23CHL1   H20 2859   3.961   3.742   5.696  0.3161 -0.8301  0.7788
   23CHL1   C21 2860   3.799   3.881   5.715 -0.1688 -0.5374 -0.0872
   23CHL1  H21A 2861   3.694   3.890   5.751 -0.2439  1.1166 -0.6100
   23CHL1  H21B 2862   3.820   3.936   5.621  0.2213 -2.5267 -1.2201
   23CHL1  H21C 2863   3.857   3.936   5.792 -2.1642 -0.2527  1.2980
   23CHL1   C22 2864   3.802   3.677   5.569  0.2331 -0.1572  0.2550
   23CHL1  H22A 2865   3.810   3.567   5.585 -0.2875  0.0209  1.9262
   23CHL1  H22B 2866   3.696   3.710   5.556 -0.2018 -1.7471 -0.4441
   23CHL1   C23 2867   3.884   3.731   5.452 -0.3690  0.0657  0.2452
   23CHL1  H23A 2868   3.887   3.842   5.457 -1.2760  0.0602  1.1313
   23CHL1  H23B 2869   3.989   3.700   5.473 -0.4798 -0.5905 -0.1127
   23CHL1   C24 2870   3.828   3.703   5.313  0.2745  0.5098 -0.4671
   23CHL1  H24A 2871   3.810   3.594   5.300 -0.5405  0.8274 -2.5008
   23CHL1  H24B 2872   3.727   3.747   5.306 -0.0406  0.0554  0.9792
   23CHL1   C25 2873   3.915   3.744   5.195  0.0563  1.6494 -0.3050
   23CHL1   H25 2874   3.919   3.855   5.198  2.0262  1.6373  3.7489
   23CHL1   C26 2875   4.056   3.697   5.207  0.3972 -0.1437 -0.2003
   23CHL1  H26A 2876   4.102   3.744   5.296 -0.5292  0.2659  0.0729
   23CHL1  H26B 2877   4.061   3.589   5.232 -0.6492  0.4895  3.2788
   23CHL1  H26C 2878   4.121   3.711   5.118  3.8433  0.7421  2.2306
   23CHL1   C27 2879   3.846   3.700   5.064  0.2350  0.1811 -0.0125
   23CHL1  H27A 2880   3.890   3.753   4.977 -1.7121 -0.5167 -1.4967
   23CHL1  H27B 2881   3.867   3.592   5.045  0.0324  0.2124 -0.4246
   23CHL1  H27C 2882   3.735   3.709   5.073  0.1598 -0.5921 -0.1021
   24CHL1    C3 2883   5.123   5.978   6.621 -0.3641 -0.5038 -0.4281
   24CHL1    H3 2884   5.232   5.958   6.611 -0.3131  0.5556 -2.4792
   24CHL1    O3 2885   5.082   5.981   6.758 -0.4770 -0.0309 -0.0924
   24CHL1   H3' 2886   4.989   6.005   6.756 -0.0899  1.6771 -2.8500
   24CHL1    C4 2887   5.096   6.113   6.549  0.6658 -0.2076 -0.2672
   24CHL1   H4A 2888   4.990   6.135   6.573  1.4029  2.3993  1.0242
   24CHL1   H4B 2889   5.156   6.198   6.590 -0.1159 -0.7858  2.2483
   24CHL1    C5 2890   5.096   6.102   6.400 -0.0093  0.6115 -0.1335
   24CHL1    C6 2891   5.180   6.180   6.335  0.4286 -0.0883 -0.1903
   24CHL1    H6 2892   5.236   6.263   6.380 -0.7847  0.4801  0.3345
   24CHL1    C7 2893   5.184   6.177   6.187  0.1801 -0.6867 -0.2180
   24CHL1   H7A 2894   5.162   6.281   6.156 -0.7338 -0.0989  2.1884
   24CHL1   H7B 2895   5.286   6.158   6.148 -0.0840  0.8805 -1.7885
   24CHL1    C8 2896   5.077   6.085   6.120 -0.0725  0.3399 -0.4773
   24CHL1    H8 2897   4.981   6.142   6.122  0.1617  0.7717 -1.2380
   24CHL1   C14 2898   5.099   6.057   5.967  0.7790  0.1963  0.0843
   24CHL1   H14 2899   5.188   5.992   5.968  0.6935  0.0120 -1.4140
   24CHL1   C15 2900   5.129   6.186   5.876 -0.4315  0.4351  0.6974
   24CHL1  H15A 2901   5.049   6.259   5.899  0.5149  2.6039 -2.2803
   24CHL1  H15B 2902   5.225   6.230   5.911  0.5176 -0.8361 -0.1872
   24CHL1   C16 2903   5.122   6.127   5.734  0.1599  0.4425 -0.0463
   24CHL1  H16A 2904   5.046   6.190   5.682 -0.3876 -0.7430 -0.7253
   24CHL1  H16B 2905   5.219   6.139   5.680  0.1866  0.5822  0.0330
   24CHL1   C17 2906   5.066   5.980   5.743 -0.1053  0.6229 -0.0634
   24CHL1   H17 2907   5.157   5.917   5.737 -1.5956 -1.5326 -2.1030
   24CHL1   C13 2908   5.003   5.972   5.883 -0.1058 -0.2690 -0.2439
   24CHL1   C18 2909   4.853   6.026   5.881 -0.9063 -0.6882  0.6361
   24CHL1  H18A 2910   4.856   6.107   5.805  0.1596 -1.7758 -0.5481
   24CHL1  H18B 2911   4.782   5.950   5.842 -0.4545  0.6281 -3.2484
   24CHL1  H18C 2912   4.829   6.070   5.980  2.1410 -1.2074  1.7115
   24CHL1   C12 2913   4.998   5.833   5.952  0.2417  0.3212  0.3625
   24CHL1  H12A 2914   4.917   5.765   5.918  0.1141  0.6070  0.0913
   24CHL1  H12B 2915   5.101   5.793   5.943 -0.2988 -0.8160 -1.3510
   24CHL1   C11 2916   4.972   5.853   6.107  0.5001  0.0711  0.1300
   24CHL1  H11A 2917   4.862   5.869   6.113  0.4275 -0.1614 -0.5797
   24CHL1  H11B 2918   4.980   5.751   6.151  1.7921  0.5836  1.1459
   24CHL1    C9 2919   5.057   5.957   6.183 -0.2475 -0.4935  0.0206
   24CHL1    H9 2920   5.155   5.905   6.193 -1.2714 -2.1607  2.3908
   24CHL1   C10 2921   5.020   5.981   6.336 -0.2666  0.5311 -0.1381
   24CHL1   C19 2922   4.869   6.017   6.359 -0.1339  0.4552  0.4637
   24CHL1  H19A 2923   4.809   5.928   6.329 -0.8149  0.3739  1.9864
   24CHL1  H19B 2924   4.848   6.023   6.468 -1.0148  0.4931  0.3053
   24CHL1  H19C 2925   4.849   6.110   6.302  2.0990  1.8145  1.8084
   24CHL1    C1 2926   5.061   5.849   6.405 -0.1160 -0.2591 -0.5162
   24CHL1   H1A 2927   5.001   5.773   6.350 -2.5043  1.9795 -1.2201
   24CHL1   H1B 2928   5.168   5.831   6.384  0.0155 -1.0690  0.7185
   24CHL1    C2 2929   5.052   5.854   6.558 -0.4716  0.4663  0.0605
   24CHL1   H2A 2930   5.095   5.761   6.602  0.1929  1.6686  2.0434
   24CHL1   H2B 2931   4.944   5.867   6.577 -0.5541  1.9325 -1.2575
   24CHL1   C20 2932   4.978   5.940   5.621  0.2908  0.7037  0.2612
   24CHL1   H20 2933   4.875   5.982   5.620 -0.1368 -0.3008  0.7504
   24CHL1   C21 2934   4.951   5.786   5.638 -0.3769 -0.6231 -0.3898
   24CHL1  H21A 2935   4.898   5.745   5.549 -2.6631 -1.0107  1.0522
   24CHL1  H21B 2936   4.879   5.768   5.721  2.4807 -1.7604  2.0069
   24CHL1  H21C 2937   5.049   5.738   5.655  1.0260  1.6084 -1.5775
   24CHL1   C22 2938   5.047   5.967   5.485 -0.2548  0.0617  0.2482
   24CHL1  H22A 2939   5.088   6.070   5.489  1.2527 -0.5510  3.4326
   24CHL1  H22B 2940   5.136   5.907   5.456  0.9577  1.5983  0.6580
   24CHL1   C23 2941   4.948   5.974   5.368  0.0488  0.2705 -0.8304
   24CHL1  H23A 2942   4.904   5.878   5.333  0.7119 -1.3512  2.3426
   24CHL1  H23B 2943   4.867   6.045   5.395  0.9613  0.0654  3.2063
   24CHL1   C24 2944   5.011   6.034   5.238 -0.2802 -0.0652  0.2988
   24CHL1  H24A 2945   4.940   6.029   5.153 -1.2219 -0.7083  1.0997
   24CHL1  H24B 2946   5.041   6.139   5.258  1.4841 -0.6870  1.1181
   24CHL1   C25 2947   5.135   5.964   5.183  0.7331 -0.0818 -0.1521
   24CHL1   H25 2948   5.232   5.988   5.234  1.7979 -1.5012 -1.4250
   24CHL1   C26 2949   5.131   5.813   5.174  0.4127 -0.7219  0.1381
   24CHL1  H26A 2950   5.108   5.772   5.275  0.9827 -2.5859 -0.4420
   24CHL1  H26B 2951   5.043   5.784   5.113 -0.7565  0.2567  1.3148
   24CHL1  H26C 2952   5.226   5.764   5.142  2.3513  1.1405  2.5910
   24CHL1   C27 2953   5.159   6.024   5.036 -0.3820  0.3553 -0.6989
   24CHL1  H27A 2954   5.068   6.034   4.972 -1.9317  2.1878  1.6070
   24CHL1  H27B 2955   5.214   6.119   5.051  0.9176 -0.4367 -0.3376
   24CHL1  H27C 2956   5.232   5.967   4.975 -2.1444  1.2402 -3.8420
   25CHL1    C3 2957   1.054   1.127   6.420  0.1348 -0.3060  0.0048
   25CHL1    H3 2958   1.108   1.030   6.411  1.8518  0.4040  1.9760
   25CHL1    O3 2959   1.058   1.179   6.554 -0.6886  0.3218 -0.3461
   25CHL1   H3' 2960   1.102   1.264   6.547 -0.7420  0.6840  2.6940
   25CHL1    C4 2961   1.132   1.229   6.345  0.9633  0.5722  0.4388
   25CHL1   H4A 2962   1.081   1.328   6.344 -1.7715 -0.7498  0.9001
   25CHL1   H4B 2963   1.232   1.243   6.391  1.8241  1.4639 -1.5376
   25CHL1    C5 2964   1.144   1.191   6.201  0.2931  1.1196 -0.5825
   25CHL1    C6 2965   1.266   1.162   6.154 -0.1136  0.2998 -0.3838
   25CHL1    H6 2966   1.350   1.173   6.223 -0.7251 -0.1977  0.4656
   25CHL1    C7 2967   1.295   1.126   6.010 -0.2175  0.3896 -0.1668
   25CHL1   H7A 2968   1.387   1.176   5.973  0.3973 -0.9568 -0.5099
   25CHL1   H7B 2969   1.313   1.016   6.012 -3.8658 -0.3193  0.9349
   25CHL1    C8 2970   1.177   1.154   5.911 -0.0071  0.3099  0.2535
   25CHL1    H8 2971   1.173   1.265   5.906 -1.1239  0.2111 -1.6090
   25CHL1   C14 2972   1.193   1.077   5.783  0.2882  0.3804  0.6662
   25CHL1   H14 2973   1.195   0.968   5.807  1.0489 -0.2000 -1.7299
   25CHL1   C15 2974   1.324   1.094   5.704 -0.0092 -0.2382 -0.0213
   25CHL1  H15A 2975   1.371   1.194   5.711 -0.5001  0.2049 -2.1048
   25CHL1  H15B 2976   1.401   1.022   5.739  1.2390  1.7248  1.4195
   25CHL1   C16 2977   1.288   1.060   5.554  0.7143  0.0381  0.1032
   25CHL1  H16A 2978   1.298   1.142   5.480 -0.9008  0.5481  0.4046
   25CHL1  H16B 2979   1.326   0.961   5.522 -0.9968 -0.0775 -1.8138
   25CHL1   C17 2980   1.130   1.033   5.556  0.3221  0.8887 -0.2888
   25CHL1   H17 2981   1.124   0.925   5.580 -1.4383  0.5361 -2.0954
   25CHL1   C13 2982   1.074   1.102   5.680 -0.3812  0.1272 -0.2552
   25CHL1   C18 2983   1.069   1.257   5.649  0.1361  0.2021 -0.3406
   25CHL1  H18A 2984   0.976   1.276   5.592  1.4889 -0.4062 -2.9168
   25CHL1  H18B 2985   1.086   1.327   5.734  0.9055 -0.7959  0.3477
   25CHL1  H18C 2986   1.154   1.283   5.583  1.1006 -2.0348 -0.0657
   25CHL1   C12 2987   0.950   1.041   5.744 -0.0695  0.2815  0.0547
   25CHL1  H12A 2988   0.855   1.050   5.686 -1.2828 -0.1628  1.8632
   25CHL1  H12B 2989   0.974   0.934   5.755 -1.9097  0.0488  2.9786
   25CHL1   C11 2990   0.919   1.093   5.889  0.2936  0.5627  0.0415
   25CHL1  H11A 2991   0.874   1.194   5.895 -2.1133 -0.5219  4.1744
   25CHL1  H11B 2992   0.840   1.038   5.944 -1.0212  0.8848 -1.4394
   25CHL1    C9 2993   1.047   1.109   5.981  0.0465  0.1043 -0.1013
   25CHL1    H9 2994   1.075   1.004   6.004  1.6357  0.7061  0.8795
   25CHL1   C10 2995   1.011   1.176   6.126 -0.0198  0.2661  0.5670
   25CHL1   C19 2996   0.939   1.317   6.097 -0.3500 -0.3576  0.5834
   25CHL1  H19A 2997   0.839   1.293   6.055 -0.3724  0.8558 -0.0977
   25CHL1  H19B 2998   0.918   1.362   6.197 -1.9741 -2.7864  1.4481
   25CHL1  H19C 2999   0.994   1.372   6.018 -0.4092 -3.8529 -2.0905
   25CHL1    C1 3000   0.920   1.082   6.213  0.2578  0.6874 -0.9376
   25CHL1   H1A 3001   0.816   1.084   6.173 -0.3196  1.9145  0.5218
   25CHL1   H1B 3002   0.952   0.976   6.199 -1.8306 -0.4255  1.8636
   25CHL1    C2 3003   0.909   1.116   6.368 -0.5177  0.0711 -0.7149
   25CHL1   H2A 3004   0.855   1.043   6.431  1.3162  0.4607  1.4209
   25CHL1   H2B 3005   0.860   1.213   6.390  0.0962  0.4837 -1.1454
   25CHL1   C20 3006   1.052   1.051   5.425 -0.0661 -0.1105 -0.5010
   25CHL1   H20 3007   1.064   1.158   5.399 -1.8958  0.6577  1.5282
   25CHL1   C21 3008   0.892   1.025   5.427  0.4694 -0.1260 -0.4685
   25CHL1  H21A 3009   0.849   1.102   5.495  0.3362  0.2511 -0.9724
   25CHL1  H21B 3010   0.867   0.923   5.462 -0.9750  0.8984  1.7326
   25CHL1  H21C 3011   0.847   1.039   5.326 -1.0841 -1.3494  0.0215
   25CHL1   C22 3012   1.107   0.967   5.309 -0.5244  0.1725  0.1202
   25CHL1  H22A 3013   1.064   1.003   5.213  0.4208  0.2635 -0.2862
   25CHL1  H22B 3014   1.214   0.998   5.307 -0.6246  0.5402  0.3320
   25CHL1   C23 3015   1.116   0.825   5.338  0.3001  0.3950  0.0140
   25CHL1  H23A 3016   1.200   0.812   5.410 -0.6599  1.0753  1.2938
   25CHL1  H23B 3017   1.026   0.779   5.384  1.6426 -2.1048  0.3220
   25CHL1   C24 3018   1.153   0.741   5.219  0.1672  0.1338 -0.2477
   25CHL1  H24A 3019   1.069   0.729   5.148 -1.3331  0.2936  1.4387
   25CHL1  H24B 3020   1.230   0.786   5.152  0.4977  0.7662  0.5428
   25CHL1   C25 3021   1.210   0.603   5.265  0.9616  0.1443 -0.0007
   25CHL1   H25 3022   1.311   0.610   5.309  1.9190 -0.4475 -2.0108
   25CHL1   C26 3023   1.105   0.525   5.344  0.3644  0.0977  0.5141
   25CHL1  H26A 3024   1.007   0.537   5.292 -0.0565 -0.7476  1.0729
   25CHL1  H26B 3025   1.133   0.418   5.357 -0.4764  0.0596  2.2804
   25CHL1  H26C 3026   1.091   0.569   5.444 -1.1664 -0.6989  0.6824
   25CHL1   C27 3027   1.233   0.524   5.130 -0.0279 -0.1087 -0.2905
   25CHL1  H27A 3028   1.309   0.580   5.073 -1.2036  0.0520 -1.7536
   25CHL1  H27B 3029   1.265   0.419   5.147 -0.0273  0.0573  0.8301
   25CHL1  H27C 3030   1.140   0.527   5.069 -1.1187  1.6951  1.3227
   26CHL1    C3 3031   5.530   4.691   6.667  0.3088  0.0263 -0.0187
   26CHL1    H3 3032   5.557   4.585   6.649  1.7666  0.4621 -0.5500
   26CHL1    O3 3033   5.472   4.716   6.792  0.0369 -0.3931 -0.4516
   26CHL1   H3' 3034   5.379   4.696   6.777  0.0241  0.5125 -1.8122
   26CHL1    C4 3035   5.653   4.780   6.628 -0.1227 -0.5231  0.6435
   26CHL1   H4A 3036   5.636   4.885   6.663 -1.4525 -0.5968  0.2885
   26CHL1   H4B 3037   5.730   4.729   6.689 -0.8643 -2.5719 -0.0672
   26CHL1    C5 3038   5.691   4.784   6.483  0.9616 -0.5592  0.1806
   26CHL1    C6 3039   5.816   4.772   6.442  0.3755  0.2676 -0.2478
   26CHL1    H6 3040   5.898   4.756   6.513  0.1160  0.6058  0.1366
   26CHL1    C7 3041   5.865   4.768   6.302 -0.1044  0.0114  0.0109
   26CHL1   H7A 3042   5.963   4.819   6.294  0.2599 -0.2553  2.1454
   26CHL1   H7B 3043   5.891   4.663   6.280 -1.1461 -0.6417  1.6596
   26CHL1    C8 3044   5.766   4.825   6.199 -0.1458 -0.0940 -0.1264
   26CHL1    H8 3045   5.762   4.936   6.201 -0.2863 -0.0947 -0.3084
   26CHL1   C14 3046   5.807   4.781   6.058 -0.3682  0.1682 -0.5255
   26CHL1   H14 3047   5.800   4.671   6.062 -2.1485  0.2782  0.9524
   26CHL1   C15 3048   5.964   4.804   6.021  0.1738  0.5736 -0.7513
   26CHL1  H15A 3049   5.996   4.907   6.046  1.1580  0.2885 -0.8112
   26CHL1  H15B 3050   6.032   4.738   6.079  0.2268  0.5384 -0.8548
   26CHL1   C16 3051   5.961   4.783   5.873 -0.1335 -0.4208 -0.3686
   26CHL1  H16A 3052   6.009   4.870   5.824  0.0835  0.6496  1.6437
   26CHL1  H16B 3053   6.025   4.695   5.848  3.3498  0.5828  3.7355
   26CHL1   C17 3054   5.815   4.757   5.830  0.5504 -0.9573 -0.4839
   26CHL1   H17 3055   5.783   4.652   5.845  0.2463 -0.4324  3.5369
   26CHL1   C13 3056   5.731   4.832   5.941 -0.4563 -0.0634 -0.0862
   26CHL1   C18 3057   5.740   4.983   5.920 -0.3918 -0.0240  0.1892
   26CHL1  H18A 3058   5.693   5.039   6.004  0.7119  0.1281  0.7198
   26CHL1  H18B 3059   5.846   5.008   5.903 -0.4903  0.4974  0.3221
   26CHL1  H18C 3060   5.685   5.014   5.829 -0.7357  1.2172  0.7980
   26CHL1   C12 3061   5.584   4.789   5.975  0.0514  0.9062 -0.0907
   26CHL1  H12A 3062   5.521   4.833   5.894 -0.6652  0.2246  0.0720
   26CHL1  H12B 3063   5.585   4.680   5.952  1.6717  0.9345 -0.2091
   26CHL1   C11 3064   5.530   4.828   6.113 -0.5932  0.3060  0.3131
   26CHL1  H11A 3065   5.541   4.938   6.128  0.8736 -0.0266  2.2242
   26CHL1  H11B 3066   5.424   4.796   6.121 -1.6673  2.9037 -1.7052
   26CHL1    C9 3067   5.622   4.771   6.224  0.0617  0.4935 -0.4018
   26CHL1    H9 3068   5.633   4.660   6.222 -0.2105  0.4288  0.7789
   26CHL1   C10 3069   5.572   4.802   6.370  0.2676  0.0209 -0.5237
   26CHL1   C19 3070   5.515   4.943   6.378 -1.0266  0.6136 -0.3410
   26CHL1  H19A 3071   5.489   4.982   6.479  0.4757 -0.2248  0.4081
   26CHL1  H19B 3072   5.599   5.004   6.337  0.9353 -1.9949 -0.4398
   26CHL1  H19C 3073   5.425   4.958   6.314  0.2996  0.5724 -2.2735
   26CHL1    C1 3074   5.461   4.697   6.410  0.1335 -0.2959  0.5338
   26CHL1   H1A 3075   5.375   4.724   6.344 -0.2187  2.2084  1.8844
   26CHL1   H1B 3076   5.509   4.598   6.394  2.6333  0.8072  0.8107
   26CHL1    C2 3077   5.412   4.710   6.558 -0.3109  0.5053  0.2025
   26CHL1   H2A 3078   5.339   4.626   6.569  0.7177 -0.4779 -0.2034
   26CHL1   H2B 3079   5.366   4.803   6.596  0.1972  0.5788  0.6464
   26CHL1   C20 3080   5.807   4.799   5.690  0.4700  0.2577 -0.0574
   26CHL1   H20 3081   5.834   4.906   5.672 -0.8744  0.5396 -0.5421
   26CHL1   C21 3082   5.655   4.797   5.643 -0.2258 -0.0370 -0.3079
   26CHL1  H21A 3083   5.616   4.693   5.642 -3.5547  1.0204  2.5647
   26CHL1  H21B 3084   5.644   4.823   5.535 -0.6590  2.8639  0.3688
   26CHL1  H21C 3085   5.587   4.864   5.700 -1.1818 -1.3287  0.1310
   26CHL1   C22 3086   5.897   4.708   5.597  0.0275 -0.3750  0.1781
   26CHL1  H22A 3087   6.002   4.740   5.613  0.1328 -0.8650  0.4815
   26CHL1  H22B 3088   5.875   4.602   5.618 -1.2652  0.0012  0.8143
   26CHL1   C23 3089   5.869   4.725   5.440  0.2911  0.5726 -0.3383
   26CHL1  H23A 3090   5.790   4.649   5.423  1.7749 -1.0466 -0.2849
   26CHL1  H23B 3091   5.833   4.828   5.420  3.3729  1.8024 -0.0773
   26CHL1   C24 3092   5.993   4.683   5.354  0.0601 -0.1731 -0.1129
   26CHL1  H24A 3093   6.085   4.670   5.416 -1.2876 -1.2488  1.7856
   26CHL1  H24B 3094   5.978   4.583   5.308  3.5655 -0.9747  0.2089
   26CHL1   C25 3095   6.012   4.778   5.233  0.7819  0.1552 -0.5684
   26CHL1   H25 3096   6.037   4.880   5.270 -3.0792  2.2114 -2.9134
   26CHL1   C26 3097   6.125   4.725   5.141  0.3811 -0.0116 -0.0344
   26CHL1  H26A 3098   6.215   4.692   5.197  2.0272 -0.5161 -2.7815
   26CHL1  H26B 3099   6.087   4.634   5.089 -0.6676 -0.5424  1.5800
   26CHL1  H26C 3100   6.149   4.809   5.073  1.0126 -0.3720 -0.2611
   26CHL1   C27 3101   5.890   4.790   5.148  0.4549  0.1834  0.2203
   26CHL1  H27A 3102   5.904   4.850   5.055 -5.1168  0.5048 -0.7546
   26CHL1  H27B 3103   5.857   4.689   5.116 -0.2599  0.2892  0.6268
   26CHL1  H27C 3104   5.800   4.831   5.197  1.1511 -2.1031  3.7684
   27CHL1    C3 3105   4.408   3.484   6.594 -0.2572 -0.6614 -0.1540
   27CHL1    H3 3106   4.317   3.420   6.596  0.2427 -1.3601  0.9272
   27CHL1    O3 3107   4.462   3.496   6.718  0.7915  0.3710 -0.6626
   27CHL1   H3' 3108   4.549   3.533   6.701  1.7630 -1.7233 -0.5530
   27CHL1    C4 3109   4.513   3.415   6.501 -0.3198  0.7093 -0.3180
   27CHL1   H4A 3110   4.610   3.465   6.526 -0.0670 -0.4156  1.1482
   27CHL1   H4B 3111   4.554   3.320   6.543  1.6375  1.2967 -0.7881
   27CHL1    C5 3112   4.485   3.404   6.353 -0.3733  0.6581 -0.4864
   27CHL1    C6 3113   4.510   3.291   6.286  0.0605 -0.2676  0.6098
   27CHL1    H6 3114   4.543   3.206   6.347 -0.7509 -0.1926  1.1555
   27CHL1    C7 3115   4.489   3.272   6.137  0.2224 -0.6312 -0.4080
   27CHL1   H7A 3116   4.561   3.206   6.085 -1.2741 -0.9440 -2.2026
   27CHL1   H7B 3117   4.394   3.215   6.131 -0.2747  0.2454 -1.1297
   27CHL1    C8 3118   4.468   3.401   6.068  1.0962 -0.3488  0.0267
   27CHL1    H8 3119   4.567   3.451   6.058 -0.0870  2.0505 -0.3045
   27CHL1   C14 3120   4.406   3.378   5.933 -0.1596 -0.1740 -0.1843
   27CHL1   H14 3121   4.305   3.336   5.947  0.7055 -3.0063 -1.5681
   27CHL1   C15 3122   4.475   3.269   5.846  0.4566  0.2975 -0.2701
   27CHL1  H15A 3123   4.584   3.284   5.863  0.1952  1.8337  0.2670
   27CHL1  H15B 3124   4.456   3.164   5.874  2.2657  0.0408  0.1373
   27CHL1   C16 3125   4.431   3.300   5.705 -0.1374 -0.2354 -0.2450
   27CHL1  H16A 3126   4.527   3.315   5.650  2.0743 -2.2393  2.7520
   27CHL1  H16B 3127   4.371   3.214   5.667  1.9070 -1.0319 -1.8575
   27CHL1   C17 3128   4.348   3.435   5.708  0.2989 -0.3714 -0.4833
   27CHL1   H17 3129   4.242   3.410   5.730  0.8996 -1.7580  1.0289
   27CHL1   C13 3130   4.402   3.501   5.840  0.1591 -0.4922  0.1488
   27CHL1   C18 3131   4.541   3.572   5.834  0.4059  0.1099 -0.3453
   27CHL1  H18A 3132   4.568   3.604   5.937 -1.0290  1.5971 -0.3835
   27CHL1  H18B 3133   4.616   3.501   5.793  0.4966 -0.6387  1.0583
   27CHL1  H18C 3134   4.531   3.663   5.771 -2.2705  0.5818  0.6447
   27CHL1   C12 3135   4.295   3.590   5.916 -0.2994 -0.0095  0.3294
   27CHL1  H12A 3136   4.289   3.694   5.879  1.8949 -0.1193 -0.4838
   27CHL1  H12B 3137   4.201   3.532   5.903  0.0945 -0.8486  1.1392
   27CHL1   C11 3138   4.330   3.622   6.069 -1.2476  0.3220 -0.1578
   27CHL1  H11A 3139   4.412   3.696   6.072 -0.7853 -0.0703 -1.8233
   27CHL1  H11B 3140   4.238   3.665   6.114 -1.2853 -1.6803  1.8496
   27CHL1    C9 3141   4.379   3.500   6.149 -0.2341  0.6202 -0.4034
   27CHL1    H9 3142   4.285   3.442   6.160  1.1324 -1.8558 -0.9037
   27CHL1   C10 3143   4.432   3.530   6.290  0.2603  0.3300  0.5407
   27CHL1   C19 3144   4.550   3.625   6.278 -0.2720 -0.2809 -0.2124
   27CHL1  H19A 3145   4.626   3.592   6.203 -0.9831 -1.9278 -0.2538
   27CHL1  H19B 3146   4.515   3.727   6.249 -0.0401 -0.4190 -1.0174
   27CHL1  H19C 3147   4.608   3.636   6.372  2.0722 -1.5567 -1.4165
   27CHL1    C1 3148   4.331   3.597   6.382  0.6887 -0.1940  0.0022
   27CHL1   H1A 3149   4.290   3.692   6.342  0.8826 -0.3234 -0.5113
   27CHL1   H1B 3150   4.247   3.526   6.397  0.5448  0.7462  6.1103
   27CHL1    C2 3151   4.380   3.619   6.532 -0.0510  0.7166  0.0569
   27CHL1   H2A 3152   4.289   3.656   6.584 -2.3479 -3.2061 -0.7353
   27CHL1   H2B 3153   4.465   3.690   6.534  1.4522 -0.9927 -0.8565
   27CHL1   C20 3154   4.357   3.510   5.578  0.0157 -0.4119  0.4054
   27CHL1   H20 3155   4.463   3.543   5.564 -0.6524  1.2459 -1.1455
   27CHL1   C21 3156   4.266   3.633   5.587  0.2836 -0.5467 -0.9136
   27CHL1  H21A 3157   4.259   3.674   5.484 -0.2735 -2.0137 -1.4906
   27CHL1  H21B 3158   4.289   3.718   5.654 -2.2517  0.7154 -1.5108
   27CHL1  H21C 3159   4.164   3.597   5.613  1.1779 -1.3765  1.7909
   27CHL1   C22 3160   4.343   3.432   5.447 -0.3564  0.7791  0.4228
   27CHL1  H22A 3161   4.350   3.499   5.358 -0.3127 -0.9439 -0.9174
   27CHL1  H22B 3162   4.420   3.354   5.429 -2.5400 -0.7101 -4.1986
   27CHL1   C23 3163   4.211   3.348   5.438  0.2224  0.8597  0.2622
   27CHL1  H23A 3164   4.208   3.268   5.515  1.5803  0.8447  0.3319
   27CHL1  H23B 3165   4.128   3.422   5.446  0.0094  0.8005 -1.0985
   27CHL1   C24 3166   4.199   3.269   5.305 -0.1314 -0.0527  0.5085
   27CHL1  H24A 3167   4.193   3.326   5.210 -2.5984 -1.2746 -0.1562
   27CHL1  H24B 3168   4.287   3.202   5.314  0.0639  0.2879  1.1932
   27CHL1   C25 3169   4.073   3.180   5.304 -0.2311 -0.1543  0.6754
   27CHL1   H25 3170   4.075   3.128   5.403  1.1006 -0.9256  0.2605
   27CHL1   C26 3171   3.938   3.255   5.286  0.0707 -0.2914 -0.3415
   27CHL1  H26A 3172   3.849   3.189   5.294 -0.0648 -0.1327 -0.5011
   27CHL1  H26B 3173   3.930   3.333   5.365 -0.0427 -0.4930 -0.1533
   27CHL1  H26C 3174   3.928   3.310   5.189  1.7805 -0.2197 -0.5042
   27CHL1   C27 3175   4.094   3.074   5.192  0.4504 -0.7108 -0.2887
   27CHL1  H27A 3176   4.033   2.982   5.209 -1.3854  0.2964 -1.0920
   27CHL1  H27B 3177   4.201   3.044   5.192  0.2663 -1.9942  3.6815
   27CHL1  H27C 3178   4.056   3.108   5.094 -0.2159 -2.2790 -0.6145
   28CHL1    C3 3179   2.773   3.629   6.716  0.8655  0.0846  0.3473
   28CHL1    H3 3180   2.691   3.555   6.704  2.5407 -1.7117 -0.6650
   28CHL1    O3 3181   2.783   3.664   6.851  0.5538  0.0338  0.7863
   28CHL1   H3' 3182   2.864   3.715   6.862  1.1629  0.1559 -2.9261
   28CHL1    C4 3183   2.897   3.572   6.662 -0.4360  0.2364 -0.5869
   28CHL1   H4A 3184   2.977   3.645   6.686 -0.3652 -0.1313  0.3426
   28CHL1   H4B 3185   2.918   3.478   6.717  0.0077  1.9362  2.3606
   28CHL1    C5 3186   2.897   3.557   6.516  0.0456  0.0928  0.1139
   28CHL1    C6 3187   2.941   3.442   6.459 -0.1961  0.6747  0.3641
   28CHL1    H6 3188   2.980   3.362   6.523 -0.2005 -1.7439 -2.4483
   28CHL1    C7 3189   2.961   3.426   6.314  0.4139  0.2163  0.2278
   28CHL1   H7A 3190   3.060   3.388   6.283  0.5358  1.1972 -0.6668
   28CHL1   H7B 3191   2.882   3.356   6.279 -1.9095  3.3464 -1.3799
   28CHL1    C8 3192   2.944   3.556   6.229  0.2457  0.2454  0.1673
   28CHL1    H8 3193   3.041   3.610   6.232  0.6619 -0.5151  0.7904
   28CHL1   C14 3194   2.911   3.524   6.086  0.0207  0.2299 -0.3041
   28CHL1   H14 3195   2.812   3.474   6.083 -0.5292  1.1453  1.3848
   28CHL1   C15 3196   3.008   3.425   6.026  0.6328  0.3376  0.8244
   28CHL1  H15A 3197   3.108   3.472   6.041  0.4176  0.7347  1.0427
   28CHL1  H15B 3198   3.019   3.321   6.061  0.5612  0.6028  1.6557
   28CHL1   C16 3199   2.975   3.434   5.879  0.5077 -0.0050  0.1057
   28CHL1  H16A 3200   3.068   3.439   5.819  0.5376 -0.6117  0.0934
   28CHL1  H16B 3201   2.916   3.347   5.843  2.3680 -0.8055 -1.1683
   28CHL1   C17 3202   2.884   3.561   5.858 -0.2660 -0.0259 -0.4892
   28CHL1   H17 3203   2.783   3.515   5.866  0.4721 -1.4448  1.4799
   28CHL1   C13 3204   2.896   3.635   5.990  0.6266  0.4595 -0.1438
   28CHL1   C18 3205   3.026   3.730   5.986 -0.1616  0.7527  0.1380
   28CHL1  H18A 3206   3.055   3.766   6.086 -1.3621 -0.8544  1.1229
   28CHL1  H18B 3207   3.100   3.659   5.943 -0.5208  1.7952 -2.3765
   28CHL1  H18C 3208   3.011   3.818   5.920 -0.9868  0.0042 -0.7162
   28CHL1   C12 3209   2.771   3.726   6.041  0.1380 -0.3578  0.3397
   28CHL1  H12A 3210   2.766   3.822   5.984 -1.0544 -0.0767  0.8718
   28CHL1  H12B 3211   2.675   3.673   6.024  0.3782 -0.5639 -0.3713
   28CHL1   C11 3212   2.802   3.763   6.186  0.6179  0.8481 -0.3292
   28CHL1  H11A 3213   2.893   3.827   6.194  3.3997 -2.8753  0.8334
   28CHL1  H11B 3214   2.719   3.819   6.233  0.5736  0.9992 -0.5856
   28CHL1    C9 3215   2.834   3.642   6.283 -0.2858  0.2862  0.0105
   28CHL1    H9 3216   2.744   3.577   6.277 -0.0403 -0.0078 -0.5210
   28CHL1   C10 3217   2.855   3.678   6.432 -0.1075 -1.5394 -0.5324
   28CHL1   C19 3218   2.970   3.785   6.442 -0.1343 -0.3232 -0.1710
   28CHL1  H19A 3219   2.983   3.815   6.549  0.6013  0.9300 -0.5884
   28CHL1  H19B 3220   3.062   3.744   6.395  1.0538  2.1908 -0.1683
   28CHL1  H19C 3221   2.943   3.873   6.381 -2.1434 -0.6253  0.2349
   28CHL1    C1 3222   2.730   3.748   6.493 -0.3933 -0.1832 -0.1365
   28CHL1   H1A 3223   2.704   3.847   6.448  3.3393 -0.1495 -2.6548
   28CHL1   H1B 3224   2.638   3.687   6.485 -0.9658  0.8260 -1.5358
   28CHL1    C2 3225   2.736   3.761   6.648  0.4745 -0.2421  0.4746
   28CHL1   H2A 3226   2.638   3.788   6.693  1.4854 -0.0641  2.7131
   28CHL1   H2B 3227   2.791   3.856   6.669 -1.5884  1.2437 -0.5537
   28CHL1   C20 3228   2.894   3.637   5.725 -0.3578  0.1438 -1.3291
   28CHL1   H20 3229   2.992   3.690   5.720 -1.6714  3.0043  0.5305
   28CHL1   C21 3230   2.772   3.731   5.710 -0.1539 -0.4412 -0.0228
   28CHL1  H21A 3231   2.793   3.824   5.768 -1.3287 -0.2485  0.1205
   28CHL1  H21B 3232   2.678   3.679   5.739 -0.3553 -0.4135 -0.6153
   28CHL1  H21C 3233   2.760   3.767   5.605 -0.8928 -1.1390 -0.1886
   28CHL1   C22 3234   2.906   3.531   5.613 -0.4987 -0.7349  0.3225
   28CHL1  H22A 3235   3.000   3.472   5.622 -0.7959 -1.3919 -0.7562
   28CHL1  H22B 3236   2.819   3.466   5.636  0.9729 -2.2209  2.0456
   28CHL1   C23 3237   2.903   3.588   5.467  0.2196  0.2294  0.4092
   28CHL1  H23A 3238   2.807   3.642   5.456 -0.4669 -0.7343  1.4486
   28CHL1  H23B 3239   2.988   3.656   5.445  0.9316 -0.4424  1.0414
   28CHL1   C24 3240   2.918   3.481   5.368 -0.2666  1.2284  0.5250
   28CHL1  H24A 3241   3.010   3.423   5.391 -0.3173  2.2728  3.7884
   28CHL1  H24B 3242   2.845   3.398   5.375  0.4916  0.3755 -1.1368
   28CHL1   C25 3243   2.921   3.528   5.222 -0.8168 -0.0619  0.4912
   28CHL1   H25 3244   2.998   3.606   5.203  0.2058 -1.1411  0.0530
   28CHL1   C26 3245   2.943   3.417   5.121  0.4133  0.0556 -0.2679
   28CHL1  H26A 3246   2.871   3.336   5.147 -0.3249  0.7199 -0.2240
   28CHL1  H26B 3247   2.924   3.451   5.016 -1.6852  0.8063  0.2902
   28CHL1  H26C 3248   3.049   3.384   5.124  0.5581  0.5971  0.8479
   28CHL1   C27 3249   2.788   3.584   5.180 -0.0226  0.2376 -0.0906
   28CHL1  H27A 3250   2.701   3.514   5.183 -0.5347  0.7588 -1.8219
   28CHL1  H27B 3251   2.779   3.678   5.237  2.6210  1.9234 -2.2185
   28CHL1  H27C 3252   2.791   3.608   5.072 -0.7848  0.1972 -0.1241
   29CHL1    C3 3253   4.625   4.804   6.570  0.2281 -0.1804  0.2167
   29CHL1    H3 3254   4.693   4.892   6.571  0.7146 -0.5154 -1.0859
   29CHL1    O3 3255   4.604   4.766   6.703 -0.3610  0.8951 -0.3862
   29CHL1   H3' 3256   4.578   4.674   6.701  0.7179  0.5679 -0.4318
   29CHL1    C4 3257   4.492   4.828   6.501 -0.1062 -0.0572  0.1911
   29CHL1   H4A 3258   4.431   4.737   6.517 -1.0274  0.6393  0.7443
   29CHL1   H4B 3259   4.439   4.906   6.560 -0.5321 -0.4109  0.2794
   29CHL1    C5 3260   4.495   4.856   6.354 -0.2343 -0.2840 -0.3628
   29CHL1    C6 3261   4.419   4.949   6.291  0.2598 -0.2627 -0.5946
   29CHL1    H6 3262   4.338   5.004   6.341  1.5573  1.3551 -0.1662
   29CHL1    C7 3263   4.432   4.963   6.140 -0.4349 -0.3435  0.5067
   29CHL1   H7A 3264   4.336   4.982   6.088  0.8331  0.1030 -1.7986
   29CHL1   H7B 3265   4.506   5.045   6.128  2.8130 -2.8234  1.9149
   29CHL1    C8 3266   4.513   4.854   6.061 -0.3213  0.1868 -0.2898
   29CHL1    H8 3267   4.440   4.772   6.042 -0.9617  0.6905 -0.0642
   29CHL1   C14 3268   4.560   4.912   5.928  0.1930 -0.0973 -0.7231
   29CHL1   H14 3269   4.635   4.992   5.947  0.3443  0.2770 -2.6692
   29CHL1   C15 3270   4.449   4.976   5.846  0.5492  1.0212  0.5082
   29CHL1  H15A 3271   4.366   4.903   5.854  0.9823 -0.0554 -3.1332
   29CHL1  H15B 3272   4.419   5.075   5.886  2.2846  1.5496  0.5907
   29CHL1   C16 3273   4.517   4.990   5.709 -0.5261 -0.3021 -0.2326
   29CHL1  H16A 3274   4.464   4.960   5.617  1.9538 -2.3850 -1.1054
   29CHL1  H16B 3275   4.556   5.094   5.713  0.1921 -0.5745  0.0947
   29CHL1   C17 3276   4.656   4.907   5.713  0.2128 -0.1183  0.0101
   29CHL1   H17 3277   4.744   4.971   5.735  0.7465 -0.0398 -2.0896
   29CHL1   C13 3278   4.641   4.819   5.839 -0.2951  0.3860 -0.3253
   29CHL1   C18 3279   4.558   4.691   5.807 -0.4996  0.0436  0.3290
   29CHL1  H18A 3280   4.470   4.719   5.744 -0.1045  2.5004  0.7653
   29CHL1  H18B 3281   4.626   4.628   5.747 -1.0056  0.0116 -0.2261
   29CHL1  H18C 3282   4.531   4.633   5.898 -0.0030 -2.4582 -1.0318
   29CHL1   C12 3283   4.773   4.791   5.922  0.5900  0.3485  0.2761
   29CHL1  H12A 3284   4.835   4.718   5.865  1.4575  0.0829  1.5189
   29CHL1  H12B 3285   4.813   4.893   5.934  0.6933  0.4718 -0.9293
   29CHL1   C11 3286   4.737   4.728   6.057 -0.4412 -0.4194 -0.2878
   29CHL1  H11A 3287   4.689   4.631   6.031  0.6068 -0.5471 -1.9075
   29CHL1  H11B 3288   4.832   4.704   6.108  0.2254  2.3018 -0.0876
   29CHL1    C9 3289   4.640   4.815   6.141 -1.0208 -0.1759 -0.5497
   29CHL1    H9 3290   4.695   4.911   6.151 -0.3701 -0.7078  1.8006
   29CHL1   C10 3291   4.609   4.765   6.280 -0.1786 -0.0002  0.2735
   29CHL1   C19 3292   4.538   4.625   6.266  0.6000  0.0582 -0.2108
   29CHL1  H19A 3293   4.443   4.633   6.208  0.0271  1.8245  0.8908
   29CHL1  H19B 3294   4.605   4.548   6.221  0.4444 -0.6113  0.6717
   29CHL1  H19C 3295   4.519   4.581   6.367 -1.1997  0.7815 -0.1813
   29CHL1    C1 3296   4.737   4.748   6.362  0.3053  0.4425 -0.0712
   29CHL1   H1A 3297   4.796   4.663   6.322 -0.9918 -1.1489  1.2209
   29CHL1   H1B 3298   4.789   4.845   6.350  0.7184  0.2359  0.0271
   29CHL1    C2 3299   4.715   4.703   6.504 -0.2118 -0.3783  0.0397
   29CHL1   H2A 3300   4.819   4.705   6.543 -0.3242  1.0913  0.3361
   29CHL1   H2B 3301   4.684   4.597   6.510 -0.3683 -0.3221  0.2210
   29CHL1   C20 3302   4.692   4.833   5.584 -0.2588 -0.2529  0.1444
   29CHL1   H20 3303   4.615   4.754   5.577 -2.5774  1.7392  1.3936
   29CHL1   C21 3304   4.825   4.765   5.605 -0.6265 -0.6492 -0.2438
   29CHL1  H21A 3305   4.813   4.682   5.678 -1.1904  1.2449  1.9468
   29CHL1  H21B 3306   4.904   4.828   5.650  0.4679 -1.9274 -0.3151
   29CHL1  H21C 3307   4.865   4.722   5.511 -1.1131 -1.0015 -0.2932
   29CHL1   C22 3308   4.693   4.931   5.458 -0.0175  0.3100 -0.0838
   29CHL1  H22A 3309   4.594   4.977   5.435  1.3376  4.2843  1.1529
   29CHL1  H22B 3310   4.753   5.023   5.474 -0.0133  0.1255  1.1228
   29CHL1   C23 3311   4.748   4.854   5.338 -0.0085  0.6303 -0.8043
   29CHL1  H23A 3312   4.858   4.850   5.351  0.0934  0.5545 -1.6260
   29CHL1  H23B 3313   4.700   4.755   5.351  0.3375  0.6199  0.5105
   29CHL1   C24 3314   4.698   4.917   5.201  0.5869  0.4090  0.5096
   29CHL1  H24A 3315   4.587   4.914   5.193  0.5565  1.6120  0.2955
   29CHL1  H24B 3316   4.737   5.021   5.192 -0.1813  0.5495 -1.8414
   29CHL1   C25 3317   4.753   4.844   5.066 -0.3123  0.4908 -0.0614
   29CHL1   H25 3318   4.719   4.739   5.065  0.4796  0.1101  3.1678
   29CHL1   C26 3319   4.699   4.914   4.932 -0.1683 -0.3288 -0.5781
   29CHL1  H26A 3320   4.728   5.021   4.927 -1.3782  0.0348 -0.3557
   29CHL1  H26B 3321   4.735   4.858   4.843 -1.7305 -0.8625 -0.9249
   29CHL1  H26C 3322   4.588   4.912   4.937 -0.1611 -0.0070 -0.2740
   29CHL1   C27 3323   4.905   4.849   5.058 -0.0676 -0.7201  0.2615
   29CHL1  H27A 3324   4.954   4.817   5.152  1.7158 -3.0140 -1.3334
   29CHL1  H27B 3325   4.939   4.773   4.983 -0.9387 -1.2433  0.3899
   29CHL1  H27C 3326   4.931   4.950   5.018 -1.1117 -0.0428  1.2533
   30CHL1    C3 3327   5.440   6.691   6.423  0.3871 -0.1723 -0.3250
   30CHL1    H3 3328   5.546   6.722   6.433  0.2734  1.3101 -2.7796
   30CHL1    O3 3329   5.390   6.721   6.553  0.5364 -0.5754 -0.3192
   30CHL1   H3' 3330   5.308   6.674   6.564 -0.9238  1.6433 -0.9766
   30CHL1    C4 3331   5.379   6.779   6.318 -0.6539  1.0435  0.0414
   30CHL1   H4A 3332   5.268   6.768   6.323 -0.7702  2.3314  0.9977
   30CHL1   H4B 3333   5.389   6.881   6.362 -0.7707  0.0896  2.4600
   30CHL1    C5 3334   5.443   6.750   6.186 -0.5744 -0.2911 -0.4399
   30CHL1    C6 3335   5.523   6.838   6.118 -0.1116  0.4962  0.1637
   30CHL1    H6 3336   5.538   6.941   6.153  0.8613  0.7365 -0.9052
   30CHL1    C7 3337   5.565   6.817   5.977  0.4242 -0.4773 -0.4884
   30CHL1   H7A 3338   5.543   6.909   5.918  1.4026  1.5128  2.0113
   30CHL1   H7B 3339   5.671   6.787   5.975  0.5267 -0.0975 -0.7822
   30CHL1    C8 3340   5.472   6.704   5.909 -0.2182 -0.3294 -0.2058
   30CHL1    H8 3341   5.368   6.740   5.900 -0.3963 -1.0930 -1.2783
   30CHL1   C14 3342   5.532   6.683   5.771 -0.8158  0.6118  0.1068
   30CHL1   H14 3343   5.640   6.663   5.788 -0.5639  2.1942  0.5247
   30CHL1   C15 3344   5.537   6.793   5.667 -0.1161 -0.2692  0.0226
   30CHL1  H15A 3345   5.441   6.848   5.656  0.3005  0.9849  2.0813
   30CHL1  H15B 3346   5.620   6.864   5.685 -0.8435  0.7766 -0.6155
   30CHL1   C16 3347   5.570   6.720   5.534  0.2201  0.7165  0.2861
   30CHL1  H16A 3348   5.502   6.744   5.449  0.4689 -2.5510 -0.9772
   30CHL1  H16B 3349   5.669   6.753   5.496 -0.7022  1.1054 -1.9320
   30CHL1   C17 3350   5.559   6.566   5.561  0.8288 -0.0904 -0.4203
   30CHL1   H17 3351   5.662   6.526   5.574  0.6264 -1.1965 -1.9413
   30CHL1   C13 3352   5.476   6.557   5.699 -0.8399 -0.5161  0.4772
   30CHL1   C18 3353   5.323   6.577   5.668 -0.1344  0.2105 -0.2103
   30CHL1  H18A 3354   5.291   6.480   5.625  1.7118 -0.4483 -0.1861
   30CHL1  H18B 3355   5.257   6.593   5.756 -0.2841 -2.4345  0.2258
   30CHL1  H18C 3356   5.307   6.658   5.593 -0.6316 -0.4051 -0.7885
   30CHL1   C12 3357   5.505   6.434   5.783 -0.4160  0.6806  0.2210
   30CHL1  H12A 3358   5.479   6.334   5.742  0.7775 -0.4532  2.0997
   30CHL1  H12B 3359   5.615   6.423   5.794 -0.5622 -0.1294  0.9618
   30CHL1   C11 3360   5.435   6.448   5.926 -0.5997  0.1032 -0.3977
   30CHL1  H11A 3361   5.328   6.446   5.898 -0.2211  0.7938 -1.9739
   30CHL1  H11B 3362   5.448   6.358   5.990 -0.6066 -0.3367 -1.0030
   30CHL1    C9 3363   5.484   6.577   5.994 -0.5369 -0.1647  0.3678
   30CHL1    H9 3364   5.592   6.553   6.002  0.2165  2.4161 -1.0861
   30CHL1   C10 3365   5.422   6.612   6.137 -0.8142  0.1078  0.4168
   30CHL1   C19 3366   5.266   6.600   6.116  0.6508  0.7878 -0.4874
   30CHL1  H19A 3367   5.220   6.662   6.036  1.6837  0.1064 -1.6354
   30CHL1  H19B 3368   5.243   6.497   6.081 -1.0377  1.8268 -2.6772
   30CHL1  H19C 3369   5.206   6.620   6.207  0.1006  1.0013 -0.8940
   30CHL1    C1 3370   5.474   6.507   6.247  1.1961 -0.3707  0.1073
   30CHL1   H1A 3371   5.435   6.409   6.213 -1.5447  1.3345 -2.0980
   30CHL1   H1B 3372   5.585   6.514   6.249  1.1258  1.3160 -0.6117
   30CHL1    C2 3373   5.424   6.544   6.385  0.1935 -0.0155  0.2927
   30CHL1   H2A 3374   5.477   6.478   6.457 -0.3789 -0.2680  0.4882
   30CHL1   H2B 3375   5.317   6.513   6.384  0.1004  0.2316  1.5469
   30CHL1   C20 3376   5.501   6.483   5.441  0.2093  0.2825 -0.0282
   30CHL1   H20 3377   5.396   6.513   5.423  0.2376  1.1443  1.1126
   30CHL1   C21 3378   5.492   6.334   5.479  0.8890  0.4602 -0.0793
   30CHL1  H21A 3379   5.394   6.315   5.528 -0.3590  3.4179 -1.1875
   30CHL1  H21B 3380   5.572   6.311   5.552  1.4405  0.7562 -0.5786
   30CHL1  H21C 3381   5.495   6.270   5.389 -1.9679 -1.8834  1.3445
   30CHL1   C22 3382   5.581   6.505   5.306 -0.5490 -0.4082 -0.2238
   30CHL1  H22A 3383   5.521   6.478   5.217  0.4514  1.8501 -1.6985
   30CHL1  H22B 3384   5.608   6.612   5.287  3.9198 -1.7959 -3.4690
   30CHL1   C23 3385   5.715   6.443   5.296 -0.1935 -0.1161 -0.4120
   30CHL1  H23A 3386   5.764   6.471   5.392  0.4741  0.8778 -1.0288
   30CHL1  H23B 3387   5.703   6.333   5.285 -0.4546 -0.3983  2.0182
   30CHL1   C24 3388   5.790   6.504   5.176  0.5899 -0.1467 -0.3533
   30CHL1  H24A 3389   5.744   6.461   5.084  1.6235 -0.3267 -0.7974
   30CHL1  H24B 3390   5.773   6.613   5.167  1.9753 -0.0428 -2.2580
   30CHL1   C25 3391   5.945   6.481   5.170  0.6545  0.1985 -0.1482
   30CHL1   H25 3392   5.955   6.371   5.152 -5.7685 -1.4471  3.0428
   30CHL1   C26 3393   5.999   6.552   5.041 -0.2006 -0.4927 -0.2640
   30CHL1  H26A 3394   5.983   6.661   5.058  0.1439 -0.0581 -2.4290
   30CHL1  H26B 3395   6.105   6.532   5.013 -0.2412 -0.5272 -0.3946
   30CHL1  H26C 3396   5.939   6.529   4.950  1.1005 -2.7747 -0.6165
   30CHL1   C27 3397   6.021   6.511   5.297 -0.4131 -0.6543 -0.4755
   30CHL1  H27A 3398   5.975   6.460   5.384 -1.4602  0.7540 -0.1562
   30CHL1  H27B 3399   6.125   6.475   5.284  0.1844  1.1814 -1.0209
   30CHL1  H27C 3400   6.012   6.621   5.312  1.3915 -0.7852  2.2694
   31CHL1    C3 3401   4.823   5.458   6.628 -0.0524 -0.3994 -0.7000
   31CHL1    H3 3402   4.881   5.552   6.616 -0.3948 -0.3951 -2.5502
   31CHL1    O3 3403   4.807   5.435   6.769  0.1159 -0.2869  0.7919
   31CHL1   H3' 3404   4.784   5.342   6.772  1.8252 -0.7391  1.1975
   31CHL1    C4 3405   4.683   5.481   6.564 -0.7639  0.5025 -0.3921
   31CHL1   H4A 3406   4.633   5.383   6.584  0.8775 -0.1394  0.8242
   31CHL1   H4B 3407   4.612   5.550   6.613 -3.0945 -0.7288 -1.8591
   31CHL1    C5 3408   4.692   5.497   6.419  0.6026  0.5241  0.0738
   31CHL1    C6 3409   4.636   5.604   6.348  0.5945  0.5195 -0.5746
   31CHL1    H6 3410   4.594   5.684   6.412 -3.8767 -0.6723 -1.6524
   31CHL1    C7 3411   4.655   5.629   6.203  0.0208 -0.6585 -0.5532
   31CHL1   H7A 3412   4.558   5.669   6.167  0.5484  0.4262 -0.8365
   31CHL1   H7B 3413   4.727   5.714   6.208 -0.7058 -0.0764  0.5496
   31CHL1    C8 3414   4.696   5.498   6.133  0.2264 -0.1117 -0.1641
   31CHL1    H8 3415   4.606   5.434   6.134  1.2913 -1.7316  2.4204
   31CHL1   C14 3416   4.744   5.525   5.996 -0.4197 -0.1604  0.6646
   31CHL1   H14 3417   4.834   5.589   6.006 -2.2725  3.1117 -1.9101
   31CHL1   C15 3418   4.665   5.615   5.903  0.9795 -0.1728 -0.1090
   31CHL1  H15A 3419   4.554   5.620   5.908  0.9392  1.5961 -1.6668
   31CHL1  H15B 3420   4.710   5.716   5.914  0.5831  0.0131 -0.1866
   31CHL1   C16 3421   4.699   5.562   5.757  0.0459 -0.2191 -0.3414
   31CHL1  H16A 3422   4.612   5.508   5.715 -0.9121  1.0964 -0.1242
   31CHL1  H16B 3423   4.714   5.637   5.676  1.3545  0.8575  0.8594
   31CHL1   C17 3424   4.813   5.458   5.775  0.2597  0.6899  0.3108
   31CHL1   H17 3425   4.903   5.522   5.783 -0.2462  1.5857 -0.8054
   31CHL1   C13 3426   4.794   5.403   5.916 -0.0635  0.3098 -0.3308
   31CHL1   C18 3427   4.691   5.292   5.921  0.2686  0.4450  0.5421
   31CHL1  H18A 3428   4.728   5.207   5.861  2.3480  1.1950  0.6713
   31CHL1  H18B 3429   4.671   5.262   6.026  0.5642 -0.7219  0.2809
   31CHL1  H18C 3430   4.591   5.320   5.880  0.2990 -1.6396 -1.0869
   31CHL1   C12 3431   4.926   5.362   5.986 -0.0042  0.1423  0.1525
   31CHL1  H12A 3432   4.967   5.273   5.933 -1.1899  0.8240 -2.0194
   31CHL1  H12B 3433   4.999   5.445   5.977 -0.0486 -0.0623 -3.5038
   31CHL1   C11 3434   4.912   5.334   6.138 -0.1846  0.1608  0.4310
   31CHL1  H11A 3435   4.869   5.232   6.148  0.7328 -0.3370 -0.4678
   31CHL1  H11B 3436   5.009   5.339   6.192 -2.0004  2.6667  3.8816
   31CHL1    C9 3437   4.817   5.438   6.211 -0.6718 -0.2902  0.3638
   31CHL1    H9 3438   4.889   5.521   6.228 -0.7007 -0.7164  2.9050
   31CHL1   C10 3439   4.774   5.386   6.349 -0.1914  0.1671 -0.5948
   31CHL1   C19 3440   4.688   5.259   6.335  0.6512 -0.1976  0.5980
   31CHL1  H19A 3441   4.660   5.230   6.438  0.1670 -0.3313  0.4310
   31CHL1  H19B 3442   4.593   5.270   6.279 -0.1473 -0.5244  1.8684
   31CHL1  H19C 3443   4.747   5.175   6.291 -0.2105 -1.8878  2.5160
   31CHL1    C1 3444   4.903   5.356   6.425  0.0568 -0.0616  0.2550
   31CHL1   H1A 3445   4.955   5.267   6.382  1.6231  0.5512  0.8058
   31CHL1   H1B 3446   4.982   5.432   6.405 -0.5361  0.1259 -1.5291
   31CHL1    C2 3447   4.890   5.334   6.575  0.2249  0.4736  0.0302
   31CHL1   H2A 3448   4.989   5.328   6.626 -0.3156  2.2027  1.3785
   31CHL1   H2B 3449   4.822   5.250   6.599  0.2580  0.5457  0.3784
   31CHL1   C20 3450   4.819   5.353   5.647 -0.0809  0.4627 -0.1189
   31CHL1   H20 3451   4.728   5.288   5.650  0.9183 -1.0790 -1.5138
   31CHL1   C21 3452   4.942   5.259   5.655 -0.5032 -0.4466 -0.0246
   31CHL1  H21A 3453   4.934   5.194   5.565 -0.1581 -0.1761 -0.2529
   31CHL1  H21B 3454   4.947   5.199   5.749  0.1425 -1.4641 -0.6949
   31CHL1  H21C 3455   5.036   5.316   5.643 -1.4765  1.2593  0.1361
   31CHL1   C22 3456   4.819   5.432   5.512  0.0065 -0.6017  0.7450
   31CHL1  H22A 3457   4.727   5.494   5.520  0.9710  0.9814  0.0478
   31CHL1  H22B 3458   4.908   5.497   5.522  0.0712 -0.8807  2.3689
   31CHL1   C23 3459   4.822   5.343   5.389  0.2061 -0.6556  0.0972
   31CHL1  H23A 3460   4.921   5.295   5.379  1.5742  2.4789 -3.9376
   31CHL1  H23B 3461   4.743   5.266   5.404  1.5547 -1.9794  0.6892
   31CHL1   C24 3462   4.798   5.420   5.263 -0.0640 -0.1974 -0.1380
   31CHL1  H24A 3463   4.700   5.471   5.267  0.6338  1.1554  0.3985
   31CHL1  H24B 3464   4.872   5.503   5.258 -0.0171 -0.0413  2.1829
   31CHL1   C25 3465   4.801   5.328   5.137 -0.0860  0.0221 -0.9839
   31CHL1   H25 3466   4.755   5.233   5.169 -2.1726  1.1790 -0.3971
   31CHL1   C26 3467   4.727   5.384   5.013 -0.1798  0.4539 -0.6515
   31CHL1  H26A 3468   4.762   5.488   4.993  1.6148 -0.1915 -1.0684
   31CHL1  H26B 3469   4.740   5.323   4.921  0.6547 -1.0775  0.4383
   31CHL1  H26C 3470   4.618   5.389   5.034 -0.0074  1.9987  0.0024
   31CHL1   C27 3471   4.943   5.295   5.103 -0.7079 -0.1218  0.0536
   31CHL1  H27A 3472   4.952   5.225   5.017  2.8008  1.4684 -1.0777
   31CHL1  H27B 3473   4.993   5.391   5.076  1.6743 -1.1679  0.4948
   31CHL1  H27C 3474   4.996   5.244   5.186  1.9644  1.0389 -0.8254
   32CHL1    C3 3475   5.244   2.738   6.060 -0.4313 -0.6221 -0.1879
   32CHL1    H3 3476   5.311   2.656   6.028 -1.4630 -1.2716 -0.7404
   32CHL1    O3 3477   5.267   2.752   6.200 -0.3104  0.3374 -0.3073
   32CHL1   H3' 3478   5.198   2.814   6.226  1.6293  2.3857  0.2345
   32CHL1    C4 3479   5.288   2.874   5.993  0.0265  0.1207 -0.2054
   32CHL1   H4A 3480   5.216   2.947   6.034 -2.3040 -1.1857 -1.7550
   32CHL1   H4B 3481   5.392   2.892   6.028  0.4516  0.0755 -1.3970
   32CHL1    C5 3482   5.279   2.874   5.845  0.2143 -0.0875 -0.1636
   32CHL1    C6 3483   5.389   2.908   5.771  0.5674 -0.1926  0.6579
   32CHL1    H6 3484   5.480   2.938   5.825  0.7405 -0.4645  0.5210
   32CHL1    C7 3485   5.383   2.930   5.626 -0.1410  0.0050  0.3923
   32CHL1   H7A 3486   5.420   3.031   5.596  2.0913 -0.9821 -0.4015
   32CHL1   H7B 3487   5.454   2.864   5.571 -1.3659 -0.0205 -1.2592
   32CHL1    C8 3488   5.230   2.922   5.574 -0.5159  0.0143  0.2003
   32CHL1    H8 3489   5.183   3.019   5.599  3.0282  1.4244  2.1601
   32CHL1   C14 3490   5.238   2.900   5.428  0.7547  0.6426 -0.1660
   32CHL1   H14 3491   5.290   2.802   5.421 -0.3886 -0.2922  2.8083
   32CHL1   C15 3492   5.320   2.991   5.335 -0.5490 -0.5005  0.0351
   32CHL1  H15A 3493   5.278   3.092   5.357  1.3144 -0.0190  1.6901
   32CHL1  H15B 3494   5.428   2.973   5.355 -1.0712 -2.6444  1.1908
   32CHL1   C16 3495   5.276   2.948   5.193 -0.2274 -0.1845  0.5751
   32CHL1  H16A 3496   5.244   3.039   5.138 -0.9905 -1.0385 -0.4248
   32CHL1  H16B 3497   5.352   2.886   5.141 -0.9538 -0.9108  0.3628
   32CHL1   C17 3498   5.148   2.854   5.215 -0.9237 -0.0567  0.2084
   32CHL1   H17 3499   5.184   2.749   5.213 -2.4950 -0.6208 -1.1243
   32CHL1   C13 3500   5.100   2.875   5.360  0.7440 -0.3786 -0.1245
   32CHL1   C18 3501   5.012   3.006   5.368  0.1627 -0.0514  0.1103
   32CHL1  H18A 3502   4.990   3.029   5.474 -2.1360 -0.2776 -0.2658
   32CHL1  H18B 3503   5.063   3.095   5.324 -1.0571 -0.0119 -1.3031
   32CHL1  H18C 3504   4.917   2.984   5.314 -0.2358  1.9002 -0.0509
   32CHL1   C12 3505   5.026   2.766   5.426  0.1488  0.1218 -0.1339
   32CHL1  H12A 3506   4.924   2.765   5.383  0.2958 -2.3299 -0.5730
   32CHL1  H12B 3507   5.067   2.668   5.393 -1.5067 -0.4001 -0.7332
   32CHL1   C11 3508   5.017   2.777   5.578  0.5097 -0.1490 -0.2336
   32CHL1  H11A 3509   4.938   2.852   5.599  1.7647  1.2900 -0.5079
   32CHL1  H11B 3510   4.977   2.680   5.615  0.8134 -0.9835 -1.9785
   32CHL1    C9 3511   5.151   2.810   5.649 -0.6261 -0.8132  0.1904
   32CHL1    H9 3512   5.213   2.719   5.635 -0.8862 -0.8181 -1.0455
   32CHL1   C10 3513   5.144   2.838   5.794 -0.1660  0.1172 -0.2323
   32CHL1   C19 3514   5.051   2.957   5.822 -0.8029 -0.4771 -0.0229
   32CHL1  H19A 3515   5.038   2.974   5.931 -1.8218  3.3120 -0.6191
   32CHL1  H19B 3516   5.097   3.046   5.775  1.5265 -0.8153  1.4591
   32CHL1  H19C 3517   4.948   2.937   5.786 -0.5815 -0.6828 -0.5493
   32CHL1    C1 3518   5.087   2.704   5.870 -0.6820 -0.4386  0.9234
   32CHL1   H1A 3519   4.978   2.706   5.852 -0.4220  1.3928 -0.7859
   32CHL1   H1B 3520   5.143   2.616   5.830  0.5100 -0.7316  3.0533
   32CHL1    C2 3521   5.108   2.702   6.020  0.0111  0.0253 -0.7535
   32CHL1   H2A 3522   5.095   2.599   6.060  2.2796  0.4727  1.4354
   32CHL1   H2B 3523   5.026   2.765   6.059  1.0732  0.7520  0.3854
   32CHL1   C20 3524   5.046   2.872   5.098  0.2944 -0.3072  0.2942
   32CHL1   H20 3525   5.011   2.975   5.075 -0.3533 -0.4605  0.5409
   32CHL1   C21 3526   4.932   2.769   5.107  1.0633  0.1910  0.5241
   32CHL1  H21A 3527   4.902   2.745   5.003  1.4057 -0.3952  0.5535
   32CHL1  H21B 3528   4.838   2.808   5.150  2.1923 -0.0105  3.3811
   32CHL1  H21C 3529   4.963   2.679   5.164  2.2795  1.1944  1.5171
   32CHL1   C22 3530   5.120   2.827   4.969 -0.3879 -0.8645  0.4634
   32CHL1  H22A 3531   5.229   2.848   4.970  0.2014 -3.6064  0.1268
   32CHL1  H22B 3532   5.115   2.716   4.974 -0.5606 -0.8056  2.3720
   32CHL1   C23 3533   5.054   2.891   4.842  0.2113  0.2309 -0.1005
   32CHL1  H23A 3534   4.944   2.877   4.854  0.6466 -0.7429  5.1359
   32CHL1  H23B 3535   5.084   2.997   4.854  1.7209 -0.1152 -0.6205
   32CHL1   C24 3536   5.097   2.841   4.700 -0.3730  0.7221 -0.8840
   32CHL1  H24A 3537   5.107   2.731   4.703  0.5304  0.8098 -0.4518
   32CHL1  H24B 3538   5.013   2.867   4.632 -0.6483 -1.3954 -1.3987
   32CHL1   C25 3539   5.237   2.887   4.650 -0.2324 -1.1745 -0.3930
   32CHL1   H25 3540   5.319   2.860   4.720  1.7113  0.5522 -1.8767
   32CHL1   C26 3541   5.266   2.808   4.526 -0.6838  0.1751  0.1933
   32CHL1  H26A 3542   5.188   2.822   4.448 -0.6867  2.2565  0.5317
   32CHL1  H26B 3543   5.367   2.839   4.493 -1.5110  2.4290 -0.3839
   32CHL1  H26C 3544   5.276   2.701   4.556 -1.9709 -0.0815 -0.2082
   32CHL1   C27 3545   5.246   3.037   4.624 -0.1219  0.6108 -0.6918
   32CHL1  H27A 3546   5.200   3.058   4.525 -0.9328  0.7157 -0.3038
   32CHL1  H27B 3547   5.191   3.097   4.700  0.6845  1.1539 -0.5220
   32CHL1  H27C 3548   5.350   3.075   4.627  0.6187 -1.3509  0.5267
   33CHL1    C3 3549   4.047   3.144   6.816  0.1803 -0.6570  0.3401
   33CHL1    H3 3550   3.937   3.128   6.819 -0.0078  0.1056 -1.3976
   33CHL1    O3 3551   4.087   3.177   6.953 -0.6118 -0.1231 -0.3132
   33CHL1   H3' 3552   4.111   3.097   7.000  0.0722 -1.1312 -2.2654
   33CHL1    C4 3553   4.118   3.016   6.765  0.5532  0.2085 -0.3552
   33CHL1   H4A 3554   4.226   3.040   6.771  0.0659  2.9714 -1.2334
   33CHL1   H4B 3555   4.099   2.935   6.839  0.0164 -0.7686 -1.5309
   33CHL1    C5 3556   4.083   2.982   6.624 -0.1144 -0.8021  0.7197
   33CHL1    C6 3557   4.016   2.876   6.588 -0.1623  0.3167 -0.7553
   33CHL1    H6 3558   3.996   2.797   6.661  0.2915  0.2734 -0.6719
   33CHL1    C7 3559   3.987   2.844   6.445 -0.3063  0.3448 -0.0666
   33CHL1   H7A 3560   4.014   2.739   6.425  1.4004 -0.0826  3.6259
   33CHL1   H7B 3561   3.884   2.874   6.415  0.8772  3.8305 -1.1901
   33CHL1    C8 3562   4.075   2.933   6.354  0.2045  0.2180 -0.4413
   33CHL1    H8 3563   4.182   2.904   6.349  0.7422  2.2374 -3.9579
   33CHL1   C14 3564   4.016   2.912   6.213 -0.0471 -0.1302  0.1183
   33CHL1   H14 3565   3.913   2.955   6.212 -0.6416 -1.5013  0.0492
   33CHL1   C15 3566   3.997   2.767   6.159  0.1571  0.6153  0.2914
   33CHL1  H15A 3567   4.083   2.703   6.187  1.5596  2.7624  1.1421
   33CHL1  H15B 3568   3.903   2.725   6.202 -1.1012  1.9211 -1.0529
   33CHL1   C16 3569   3.985   2.789   6.011  0.3402 -0.2586 -0.7793
   33CHL1  H16A 3570   4.053   2.721   5.956  1.1132 -0.3660  0.2698
   33CHL1  H16B 3571   3.882   2.771   5.975 -0.6735  1.6574  0.9593
   33CHL1   C17 3572   4.025   2.938   5.973 -0.3860 -0.0128  0.1316
   33CHL1   H17 3573   3.930   2.995   5.962  0.9614  2.0760 -1.5470
   33CHL1   C13 3574   4.098   2.991   6.101  0.4558 -0.4028  0.6661
   33CHL1   C18 3575   4.248   2.943   6.091  0.1852 -0.4414 -0.5756
   33CHL1  H18A 3576   4.305   2.938   6.185 -0.2019 -0.5160 -0.3419
   33CHL1  H18B 3577   4.249   2.836   6.062  0.0575 -1.3480  2.4310
   33CHL1  H18C 3578   4.296   3.002   6.010  3.1401 -3.3585 -1.1501
   33CHL1   C12 3579   4.085   3.137   6.134 -0.3477 -0.1351 -0.5070
   33CHL1  H12A 3580   4.134   3.207   6.062  0.9192  0.9545  1.3300
   33CHL1  H12B 3581   3.980   3.173   6.141  0.1404  1.0717  1.5861
   33CHL1   C11 3582   4.141   3.170   6.277  0.6196 -0.2234 -0.7916
   33CHL1  H11A 3583   4.250   3.154   6.267  0.1386 -2.8064 -3.2773
   33CHL1  H11B 3584   4.110   3.276   6.292  0.0495 -0.4431 -0.3355
   33CHL1    C9 3585   4.070   3.085   6.383  0.6586  0.3826 -0.0604
   33CHL1    H9 3586   3.964   3.120   6.382  0.6369  0.3349  0.3839
   33CHL1   C10 3587   4.114   3.098   6.525 -0.6690 -0.3077  0.0063
   33CHL1   C19 3588   4.269   3.117   6.510  0.5259  0.2112 -0.2732
   33CHL1  H19A 3589   4.331   3.105   6.601  0.8003  1.2591 -0.2978
   33CHL1  H19B 3590   4.307   3.047   6.433  1.1029  2.3330 -2.0525
   33CHL1  H19C 3591   4.300   3.217   6.470  0.6698  1.5178  2.8332
   33CHL1    C1 3592   4.062   3.233   6.580  0.5314 -0.5985  0.1616
   33CHL1   H1A 3593   4.097   3.316   6.515 -1.5902 -1.0061 -1.6122
   33CHL1   H1B 3594   3.951   3.234   6.572  0.4876 -2.2231  0.1767
   33CHL1    C2 3595   4.088   3.263   6.727 -0.4692 -0.5070 -0.3402
   33CHL1   H2A 3596   4.027   3.352   6.756 -0.1430 -0.4379  0.1526
   33CHL1   H2B 3597   4.197   3.277   6.736 -0.0438 -2.7297 -1.4105
   33CHL1   C20 3598   4.093   2.943   5.832  0.4134 -0.2193  0.9306
   33CHL1   H20 3599   4.192   2.893   5.832  1.0906  1.0606 -0.6094
   33CHL1   C21 3600   4.121   3.090   5.793  0.1279 -0.4089  0.1416
   33CHL1  H21A 3601   4.162   3.102   5.690  0.4412 -2.1983  0.0303
   33CHL1  H21B 3602   4.201   3.134   5.857 -1.5406  0.3832  1.7729
   33CHL1  H21C 3603   4.032   3.156   5.791  1.0551  0.8744 -0.3367
   33CHL1   C22 3604   4.007   2.865   5.718  0.3028  0.0250 -0.1939
   33CHL1  H22A 3605   4.068   2.881   5.626  2.8836  1.7262  1.6751
   33CHL1  H22B 3606   4.006   2.754   5.726  0.4608  0.0516  0.2040
   33CHL1   C23 3607   3.869   2.910   5.685  0.5664  0.4097 -0.0438
   33CHL1  H23A 3608   3.800   2.885   5.768  0.1373 -0.0486 -0.5231
   33CHL1  H23B 3609   3.872   3.020   5.670  1.0453  0.1028 -2.6364
   33CHL1   C24 3610   3.817   2.829   5.560  0.1800 -0.3477 -0.2691
   33CHL1  H24A 3611   3.877   2.852   5.469 -0.2139  1.8441 -0.0337
   33CHL1  H24B 3612   3.826   2.719   5.577 -0.4195 -0.6660 -1.7967
   33CHL1   C25 3613   3.672   2.862   5.502 -0.5585 -0.5379  0.6036
   33CHL1   H25 3614   3.597   2.848   5.584  0.7299  0.0855  1.9338
   33CHL1   C26 3615   3.666   3.007   5.466  0.3278  1.1567  0.0047
   33CHL1  H26A 3616   3.565   3.039   5.435 -0.0111  0.6545  0.5801
   33CHL1  H26B 3617   3.682   3.066   5.559  2.1565 -0.8027  1.0180
   33CHL1  H26C 3618   3.741   3.036   5.389  0.3929 -0.6612 -0.6744
   33CHL1   C27 3619   3.635   2.785   5.373 -0.4972  0.2628 -0.1401
   33CHL1  H27A 3620   3.631   2.676   5.396 -1.4514  0.0527 -1.1950
   33CHL1  H27B 3621   3.533   2.811   5.338 -1.1375  1.8781  2.6470
   33CHL1  H27C 3622   3.710   2.802   5.292  1.0185  0.5402  1.2702
   34CHL1    C3 3623   4.938   4.256   6.363 -0.3467 -0.3892 -0.6185
   34CHL1    H3 3624   4.879   4.163   6.349 -0.4610 -0.0630 -2.5209
   34CHL1    O3 3625   4.963   4.268   6.506  0.2501  0.1234  0.2910
   34CHL1   H3' 3626   4.980   4.361   6.523 -2.9507  0.7657  0.6368
   34CHL1    C4 3627   5.072   4.253   6.288  0.3655  0.1565 -0.8350
   34CHL1   H4A 3628   5.124   4.349   6.308 -1.0039  0.9427 -0.9550
   34CHL1   H4B 3629   5.126   4.168   6.335 -1.7017 -0.8202 -0.0990
   34CHL1    C5 3630   5.053   4.238   6.141  0.2342 -0.1206  0.2378
   34CHL1    C6 3631   5.121   4.142   6.070  0.2385  0.4242  0.5854
   34CHL1    H6 3632   5.178   4.062   6.120  0.0692 -1.3279 -1.8119
   34CHL1    C7 3633   5.119   4.119   5.924  0.0273  0.2184  0.6288
   34CHL1   H7A 3634   5.221   4.108   5.880 -0.7160 -0.0014 -1.1094
   34CHL1   H7B 3635   5.066   4.025   5.897  1.1718 -0.3788  0.3778
   34CHL1    C8 3636   5.063   4.247   5.848 -0.1974 -0.5054  0.1443
   34CHL1    H8 3637   5.149   4.317   5.841  1.1099 -2.1515 -1.8427
   34CHL1   C14 3638   5.026   4.212   5.706  0.0078 -0.2818  0.3068
   34CHL1   H14 3639   4.943   4.139   5.710 -2.0752  1.7371 -2.1970
   34CHL1   C15 3640   5.136   4.145   5.630 -0.7051  0.6348 -0.4358
   34CHL1  H15A 3641   5.235   4.195   5.636 -0.2695 -0.1292 -1.0742
   34CHL1  H15B 3642   5.158   4.046   5.675  2.8147  0.6364 -1.8035
   34CHL1   C16 3643   5.083   4.154   5.490  0.1832 -0.1726 -0.5473
   34CHL1  H16A 3644   5.168   4.186   5.427  0.4319 -0.7343 -0.5072
   34CHL1  H16B 3645   5.054   4.056   5.444  2.3711  0.0854 -2.6710
   34CHL1   C17 3646   4.966   4.258   5.485  0.1187  0.2174 -0.4239
   34CHL1   H17 3647   4.864   4.215   5.494  0.5960 -0.7861  0.4054
   34CHL1   C13 3648   4.977   4.328   5.617 -0.5918 -0.2252 -0.2535
   34CHL1   C18 3649   5.089   4.435   5.601  0.3367 -0.3816  0.4522
   34CHL1  H18A 3650   5.088   4.491   5.697  0.7779  2.0734 -0.8765
   34CHL1  H18B 3651   5.190   4.395   5.577  0.5735  0.7671 -0.5513
   34CHL1  H18C 3652   5.056   4.519   5.536 -1.0882 -2.3546 -1.5085
   34CHL1   C12 3653   4.854   4.392   5.680  0.6345  0.2081  1.1702
   34CHL1  H12A 3654   4.810   4.475   5.622  2.1146 -0.2246 -0.6842
   34CHL1  H12B 3655   4.777   4.312   5.679 -1.1629  1.7618 -2.5525
   34CHL1   C11 3656   4.877   4.430   5.828 -0.6000 -0.1638  0.0667
   34CHL1  H11A 3657   4.936   4.523   5.833 -1.4859  0.3935  0.3662
   34CHL1  H11B 3658   4.780   4.452   5.876  0.4398  1.2080  1.6345
   34CHL1    C9 3659   4.938   4.309   5.921  0.2320 -0.6129  0.2605
   34CHL1    H9 3660   4.861   4.229   5.929 -0.1150 -0.2520  0.5965
   34CHL1   C10 3661   4.967   4.342   6.072  0.1961 -0.0717  0.5096
   34CHL1   C19 3662   5.047   4.479   6.072  0.1620  0.4264 -0.5096
   34CHL1  H19A 3663   5.075   4.510   6.175 -0.5375 -0.6925  0.0373
   34CHL1  H19B 3664   5.143   4.475   6.016 -0.2423  1.9815 -1.3950
   34CHL1  H19C 3665   4.993   4.568   6.031  2.5362  2.3027  0.2006
   34CHL1    C1 3666   4.840   4.351   6.156  0.7929  0.7406 -0.1726
   34CHL1   H1A 3667   4.777   4.425   6.102 -0.2630 -0.7868 -1.1105
   34CHL1   H1B 3668   4.793   4.251   6.149 -0.0206  1.1457 -0.6080
   34CHL1    C2 3669   4.852   4.371   6.302  0.0543  0.1717 -0.1138
   34CHL1   H2A 3670   4.756   4.367   6.357  0.9126  1.0163  1.5134
   34CHL1   H2B 3671   4.908   4.465   6.324 -0.4224  0.0535  1.8112
   34CHL1   C20 3672   4.970   4.333   5.349 -0.1625 -1.1170 -0.5625
   34CHL1   H20 3673   5.055   4.404   5.337 -1.0468 -0.0364 -0.6453
   34CHL1   C21 3674   4.842   4.416   5.347 -0.0008 -0.4874 -0.3375
   34CHL1  H21A 3675   4.757   4.346   5.334 -2.7846  2.7740 -1.3785
   34CHL1  H21B 3676   4.853   4.487   5.261 -0.9471 -1.9684 -1.7316
   34CHL1  H21C 3677   4.825   4.477   5.438  0.4792 -0.1903 -0.4431
   34CHL1   C22 3678   4.977   4.235   5.229  0.1560 -0.0720 -0.2756
   34CHL1  H22A 3679   5.062   4.164   5.235 -1.3041 -1.8798 -0.1768
   34CHL1  H22B 3680   4.885   4.174   5.239 -0.4016  0.4307 -2.0733
   34CHL1   C23 3681   4.976   4.298   5.088 -0.6238 -0.2176 -0.3549
   34CHL1  H23A 3682   4.970   4.212   5.018 -0.0204 -1.3829  0.9857
   34CHL1  H23B 3683   4.890   4.368   5.084 -0.2052  0.3168 -0.1068
   34CHL1   C24 3684   5.110   4.373   5.065 -0.1530 -0.5135 -0.5093
   34CHL1  H24A 3685   5.097   4.455   5.138 -3.7772 -1.4071  0.0434
   34CHL1  H24B 3686   5.198   4.319   5.105  1.6283  1.5130 -1.4840
   34CHL1   C25 3687   5.133   4.421   4.920 -0.1223 -0.3099 -0.8003
   34CHL1   H25 3688   5.043   4.474   4.880 -1.4363 -2.2534 -0.5219
   34CHL1   C26 3689   5.250   4.519   4.912 -0.0013 -0.3414 -0.4794
   34CHL1  H26A 3690   5.248   4.570   4.814 -1.2247 -0.5869 -0.5919
   34CHL1  H26B 3691   5.252   4.591   4.997 -1.8781 -0.2129 -0.5047
   34CHL1  H26C 3692   5.340   4.454   4.910 -1.9326 -3.1685 -1.2119
   34CHL1   C27 3693   5.159   4.312   4.811 -0.1283  0.4467 -0.6991
   34CHL1  H27A 3694   5.060   4.266   4.787 -0.7994  1.4497  0.0870
   34CHL1  H27B 3695   5.216   4.357   4.728  0.4291  0.3820 -0.3573
   34CHL1  H27C 3696   5.213   4.231   4.866 -2.4238 -0.9442 -0.3642
   35CHL1    C3 3697   0.613   0.568   6.601 -0.3803  0.2665  0.0649
   35CHL1    H3 3698   0.542   0.483   6.586 -0.2966  0.2900 -0.4821
   35CHL1    O3 3699   0.622   0.586   6.738  0.2173  0.6008 -0.5417
   35CHL1   H3' 3700   0.709   0.544   6.743  1.3271  2.9019  2.5190
   35CHL1    C4 3701   0.744   0.540   6.530 -1.0561  0.1955  0.0755
   35CHL1   H4A 3702   0.820   0.614   6.562 -0.1032 -0.4453 -0.6356
   35CHL1   H4B 3703   0.797   0.452   6.573  2.4503  1.9705 -0.3003
   35CHL1    C5 3704   0.737   0.527   6.378 -0.6952  0.3474  0.2658
   35CHL1    C6 3705   0.772   0.416   6.317 -0.7230  0.3320 -0.1701
   35CHL1    H6 3706   0.812   0.338   6.384 -2.1389  0.6310  1.0665
   35CHL1    C7 3707   0.778   0.409   6.165  0.1402 -1.1289 -0.1750
   35CHL1   H7A 3708   0.878   0.378   6.129 -0.2161 -0.2185 -2.0764
   35CHL1   H7B 3709   0.710   0.328   6.131 -0.2111 -1.6926  1.7330
   35CHL1    C8 3710   0.760   0.546   6.096 -0.1883  0.8830 -0.3976
   35CHL1    H8 3711   0.854   0.604   6.100  1.1030 -1.1747  2.4641
   35CHL1   C14 3712   0.709   0.526   5.954  0.1859 -0.7375  0.7104
   35CHL1   H14 3713   0.608   0.483   5.967 -0.1694  0.3845  1.8942
   35CHL1   C15 3714   0.797   0.445   5.858 -0.2090  0.2173  0.7897
   35CHL1  H15A 3715   0.899   0.489   5.866 -1.0068  2.1382  1.0910
   35CHL1  H15B 3716   0.789   0.336   5.876 -0.0103 -0.1288 -1.0559
   35CHL1   C16 3717   0.746   0.498   5.720  0.2729 -0.4703  0.3131
   35CHL1  H16A 3718   0.837   0.527   5.664  0.1422  2.6725  1.5054
   35CHL1  H16B 3719   0.697   0.415   5.665  2.1659 -0.2098 -1.8994
   35CHL1   C17 3720   0.647   0.621   5.735 -0.7361  0.0099  0.1517
   35CHL1   H17 3721   0.547   0.573   5.724 -0.5824  0.2104 -3.1872
   35CHL1   C13 3722   0.684   0.662   5.874  0.8407 -0.1134  0.2904
   35CHL1   C18 3723   0.810   0.754   5.875 -0.2973  0.3279 -0.6277
   35CHL1  H18A 3724   0.901   0.724   5.819 -1.0856 -0.1721 -1.6617
   35CHL1  H18B 3725   0.782   0.855   5.838 -0.3241  0.7526  0.5097
   35CHL1  H18C 3726   0.844   0.777   5.979  0.6267 -1.4949 -0.4889
   35CHL1   C12 3727   0.563   0.732   5.941 -0.4579  0.1480 -0.5461
   35CHL1  H12A 3728   0.562   0.827   5.884  1.9407 -0.2362 -1.3677
   35CHL1  H12B 3729   0.479   0.659   5.937  2.9246 -4.2039 -0.2414
   35CHL1   C11 3730   0.595   0.764   6.087  0.5396 -0.0603 -0.4468
   35CHL1  H11A 3731   0.673   0.843   6.092 -0.9305  1.4094  0.2307
   35CHL1  H11B 3732   0.514   0.820   6.138  0.8124  1.3287 -1.4829
   35CHL1    C9 3733   0.650   0.629   6.165  0.9928  0.2418  0.3215
   35CHL1    H9 3734   0.557   0.569   6.156  0.1309  1.4730  0.7202
   35CHL1   C10 3735   0.674   0.649   6.315  0.7866  0.6219  0.2790
   35CHL1   C19 3736   0.773   0.771   6.321  0.5462  0.0041 -1.0756
   35CHL1  H19A 3737   0.858   0.743   6.256  1.6830 -0.2388  0.4522
   35CHL1  H19B 3738   0.726   0.861   6.276  1.0924  0.0004 -1.6542
   35CHL1  H19C 3739   0.808   0.797   6.423 -1.2805 -0.5009 -0.2679
   35CHL1    C1 3740   0.537   0.673   6.387  0.3054  0.2308  0.1511
   35CHL1   H1A 3741   0.500   0.769   6.344  1.2918  0.1942 -0.8238
   35CHL1   H1B 3742   0.459   0.598   6.364  1.1785 -0.5428 -0.3309
   35CHL1    C2 3743   0.546   0.689   6.540 -0.2317 -0.5296  1.4883
   35CHL1   H2A 3744   0.441   0.699   6.573 -0.4565  0.2201  0.5816
   35CHL1   H2B 3745   0.607   0.779   6.563 -1.0160  1.1197 -2.2265
   35CHL1   C20 3746   0.671   0.712   5.614  0.3990 -0.0402 -0.1656
   35CHL1   H20 3747   0.773   0.757   5.607 -0.6373  2.2898 -1.5444
   35CHL1   C21 3748   0.578   0.831   5.626  0.9980  0.4340  0.3619
   35CHL1  H21A 3749   0.585   0.895   5.535 -2.2560 -1.4368 -1.3899
   35CHL1  H21B 3750   0.608   0.906   5.703 -0.1311  1.8740 -0.5355
   35CHL1  H21C 3751   0.472   0.805   5.648  1.5804 -0.8866  1.7828
   35CHL1   C22 3752   0.629   0.653   5.476  0.2259 -0.3902  0.7243
   35CHL1  H22A 3753   0.678   0.552   5.476  0.2983 -0.3573  1.3794
   35CHL1  H22B 3754   0.520   0.635   5.471  0.3257 -0.7651 -0.7137
   35CHL1   C23 3755   0.677   0.731   5.349  0.8608  0.3090  0.0518
   35CHL1  H23A 3756   0.622   0.828   5.350 -0.0777 -0.2075 -0.1097
   35CHL1  H23B 3757   0.788   0.744   5.349  0.8868  0.0904  0.7325
   35CHL1   C24 3758   0.634   0.671   5.215 -1.2035 -0.2182  0.6890
   35CHL1  H24A 3759   0.663   0.565   5.204  0.5321  0.4081 -1.3832
   35CHL1  H24B 3760   0.525   0.657   5.231 -1.2252 -0.0463  0.6984
   35CHL1   C25 3761   0.658   0.755   5.090  0.2272  0.4547  0.5916
   35CHL1   H25 3762   0.610   0.851   5.117 -1.3739  0.5130 -2.1187
   35CHL1   C26 3763   0.809   0.772   5.056  0.6592 -0.7716  0.1613
   35CHL1  H26A 3764   0.813   0.844   4.972 -0.4959  0.7044  1.3040
   35CHL1  H26B 3765   0.864   0.814   5.143 -1.6671  1.5536  0.6403
   35CHL1  H26C 3766   0.860   0.678   5.027 -0.9418 -1.7261  0.3232
   35CHL1   C27 3767   0.576   0.701   4.968 -0.0108  0.0467 -0.9859
   35CHL1  H27A 3768   0.635   0.613   4.937  2.5105  1.1393  0.4259
   35CHL1  H27B 3769   0.470   0.677   4.993 -0.2237  0.1947 -1.7294
   35CHL1  H27C 3770   0.577   0.774   4.884  1.6535  0.5479 -0.5694
   36CHL1    C3 3771   3.823   4.361   6.483  0.3200  0.0490 -0.2796
   36CHL1    H3 3772   3.922   4.379   6.436  0.2539 -1.9967 -1.3091
   36CHL1    O3 3773   3.842   4.356   6.626  0.3582  0.1160  0.3811
   36CHL1   H3' 3774   3.798   4.436   6.657  3.1654  1.7501  0.4953
   36CHL1    C4 3775   3.726   4.469   6.434  0.5740  0.0091 -0.2970
   36CHL1   H4A 3776   3.626   4.441   6.473  1.2146  1.1080  2.4168
   36CHL1   H4B 3777   3.758   4.564   6.483 -0.0225 -0.2069  0.5207
   36CHL1    C5 3778   3.719   4.487   6.282 -0.0281 -0.8414  0.2525
   36CHL1    C6 3779   3.761   4.602   6.228 -0.3642  0.7679 -0.3301
   36CHL1    H6 3780   3.788   4.682   6.298  0.5976  0.8687 -0.8027
   36CHL1    C7 3781   3.762   4.625   6.078 -0.4285  0.0812 -0.5823
   36CHL1   H7A 3782   3.703   4.718   6.068 -3.0295 -1.3041  0.8417
   36CHL1   H7B 3783   3.863   4.644   6.035  1.2327 -0.2333  2.8330
   36CHL1    C8 3784   3.693   4.504   5.998  0.5337 -0.3533 -0.4811
   36CHL1    H8 3785   3.582   4.517   6.004  0.5508  0.4843 -1.5511
   36CHL1   C14 3786   3.740   4.515   5.859 -0.2519 -0.1710  0.5921
   36CHL1   H14 3787   3.850   4.503   5.853 -0.2559  0.6682 -2.6478
   36CHL1   C15 3788   3.725   4.647   5.776 -0.0428  0.1232  0.0896
   36CHL1  H15A 3789   3.620   4.676   5.796 -0.0271 -0.2613  0.7892
   36CHL1  H15B 3790   3.799   4.717   5.822 -2.3029  2.7499 -0.0322
   36CHL1   C16 3791   3.743   4.599   5.632 -0.0458 -0.1233  0.5276
   36CHL1  H16A 3792   3.654   4.601   5.566  0.7332 -0.0876 -0.5636
   36CHL1  H16B 3793   3.823   4.664   5.589 -0.7856  0.4516 -0.0038
   36CHL1   C17 3794   3.772   4.451   5.633  0.2252  0.2963 -0.0568
   36CHL1   H17 3795   3.878   4.437   5.664  0.3499  0.8946 -0.2075
   36CHL1   C13 3796   3.700   4.401   5.757  0.8396 -0.1658  0.3103
   36CHL1   C18 3797   3.548   4.401   5.732 -0.2025 -0.5352  0.1313
   36CHL1  H18A 3798   3.502   4.303   5.707  0.2472  0.3694 -5.5090
   36CHL1  H18B 3799   3.500   4.442   5.824 -0.1487 -1.8127  0.7472
   36CHL1  H18C 3800   3.519   4.462   5.644  1.6839  1.3765  0.7538
   36CHL1   C12 3801   3.747   4.268   5.822 -0.8358  0.5175 -0.2962
   36CHL1  H12A 3802   3.706   4.174   5.778  1.9171 -1.8601  1.8641
   36CHL1  H12B 3803   3.857   4.260   5.809 -1.1824 -2.0640 -2.5344
   36CHL1   C11 3804   3.696   4.250   5.965 -0.3771  0.4010 -0.2411
   36CHL1  H11A 3805   3.586   4.233   5.959 -0.4995  1.5342 -2.0493
   36CHL1  H11B 3806   3.732   4.155   6.010  3.8151  2.5253  1.4255
   36CHL1    C9 3807   3.729   4.369   6.059 -0.2383 -0.0957 -0.7521
   36CHL1    H9 3808   3.839   4.374   6.061 -0.2475  0.2342 -0.9643
   36CHL1   C10 3809   3.693   4.357   6.209  0.1320  0.2022 -1.0318
   36CHL1   C19 3810   3.543   4.336   6.226  0.3271  0.5433  0.4508
   36CHL1  H19A 3811   3.504   4.334   6.330  1.3782  0.0147  0.8496
   36CHL1  H19B 3812   3.494   4.418   6.170  0.7000  1.7892  1.9027
   36CHL1  H19C 3813   3.520   4.233   6.189  0.2793  0.0139  1.8743
   36CHL1    C1 3814   3.766   4.238   6.285 -0.3271  0.2548  0.3398
   36CHL1   H1A 3815   3.707   4.148   6.258  0.8434  0.0160 -1.6572
   36CHL1   H1B 3816   3.869   4.226   6.244  0.1954  3.3911  0.4919
   36CHL1    C2 3817   3.771   4.226   6.437  0.1995  0.9055 -0.2100
   36CHL1   H2A 3818   3.845   4.154   6.477  0.0756  1.2603  0.6662
   36CHL1   H2B 3819   3.665   4.208   6.464 -0.0543  2.3027 -0.1942
   36CHL1   C20 3820   3.760   4.380   5.496  0.1953 -0.5479  0.1834
   36CHL1   H20 3821   3.657   4.383   5.454  0.0965  3.3033  0.3172
   36CHL1   C21 3822   3.778   4.235   5.511 -0.7913 -0.2997  0.4176
   36CHL1  H21A 3823   3.690   4.180   5.551 -1.0217  2.2545  3.8299
   36CHL1  H21B 3824   3.865   4.216   5.577 -1.1651  0.7889  1.2424
   36CHL1  H21C 3825   3.793   4.191   5.410  1.9620  2.8381 -0.7151
   36CHL1   C22 3826   3.857   4.449   5.394 -0.0072  0.7257  0.4276
   36CHL1  H22A 3827   3.836   4.558   5.390  1.2786  0.9803  0.2209
   36CHL1  H22B 3828   3.963   4.440   5.428 -0.2426  0.2363  1.0496
   36CHL1   C23 3829   3.846   4.399   5.249 -0.0770  0.0892  0.3210
   36CHL1  H23A 3830   3.894   4.301   5.229  0.5310  0.7134 -1.4757
   36CHL1  H23B 3831   3.740   4.381   5.219  0.1600  1.3867 -1.4473
   36CHL1   C24 3832   3.907   4.504   5.151  1.0334 -0.0150 -1.0054
   36CHL1  H24A 3833   3.923   4.602   5.201 -0.2685  0.3556 -1.2829
   36CHL1  H24B 3834   4.014   4.478   5.133  2.2582  1.6389  2.8166
   36CHL1   C25 3835   3.839   4.523   5.014  0.4591 -0.2719  0.5884
   36CHL1   H25 3836   3.791   4.425   4.991 -0.6676 -1.0548  5.2401
   36CHL1   C26 3837   3.723   4.621   5.007  0.1009  0.1994 -0.1254
   36CHL1  H26A 3838   3.663   4.606   5.099  2.6346  0.4665  1.6804
   36CHL1  H26B 3839   3.743   4.727   5.034 -0.7632  0.1079  0.9549
   36CHL1  H26C 3840   3.647   4.617   4.926 -3.0844 -0.8456  2.6641
   36CHL1   C27 3841   3.933   4.543   4.892 -0.4941 -0.5234  0.4213
   36CHL1  H27A 3842   4.001   4.457   4.874 -0.0358  0.1088 -0.9925
   36CHL1  H27B 3843   3.878   4.570   4.799  0.2222 -0.1216  0.1124
   36CHL1  H27C 3844   4.006   4.625   4.908 -0.0108 -0.2389 -2.5582
   37CHL1    C3 3845   3.419   6.511   6.386  0.2436  0.3097 -0.3791
   37CHL1    H3 3846   3.513   6.482   6.334 -0.6854 -0.6195 -1.5987
   37CHL1    O3 3847   3.426   6.488   6.527 -0.3326 -0.1403  0.2954
   37CHL1   H3' 3848   3.466   6.402   6.542  0.8824  0.0608 -1.5068
   37CHL1    C4 3849   3.388   6.657   6.344  0.3313 -0.2768 -0.0154
   37CHL1   H4A 3850   3.295   6.693   6.393  1.1903 -1.2080  2.4535
   37CHL1   H4B 3851   3.472   6.720   6.381 -0.1164  0.7349 -0.6823
   37CHL1    C5 3852   3.385   6.670   6.194 -0.1303 -0.3570  0.3416
   37CHL1    C6 3853   3.464   6.748   6.116 -1.0999 -0.4902  0.4792
   37CHL1    H6 3854   3.537   6.816   6.163 -1.4729 -0.0077  0.3662
   37CHL1    C7 3855   3.450   6.765   5.966  1.2957 -0.2536 -0.3602
   37CHL1   H7A 3856   3.458   6.875   5.955 -0.9516  0.1103  0.8931
   37CHL1   H7B 3857   3.538   6.727   5.912  1.2075 -1.2543  0.1739
   37CHL1    C8 3858   3.319   6.707   5.906  0.1150 -0.0768 -0.0692
   37CHL1    H8 3859   3.237   6.771   5.944  0.2467 -1.3177  2.5170
   37CHL1   C14 3860   3.335   6.688   5.758 -0.1996  0.1289 -0.1233
   37CHL1   H14 3861   3.425   6.624   5.751  0.0407  0.3271  0.8978
   37CHL1   C15 3862   3.379   6.814   5.678 -0.8155  0.3060 -0.0099
   37CHL1  H15A 3863   3.322   6.906   5.703  0.7083  1.4731 -0.7326
   37CHL1  H15B 3864   3.488   6.829   5.691 -0.1414 -3.1566 -0.6687
   37CHL1   C16 3865   3.347   6.779   5.532  0.5575 -0.6211 -0.3935
   37CHL1  H16A 3866   3.269   6.845   5.488 -1.6550 -0.2489  3.5660
   37CHL1  H16B 3867   3.441   6.782   5.474  1.4592  1.3611  1.0090
   37CHL1   C17 3868   3.284   6.635   5.541 -0.2711  0.4477  0.0529
   37CHL1   H17 3869   3.374   6.570   5.550 -1.5939 -1.6005 -0.6447
   37CHL1   C13 3870   3.218   6.628   5.678  0.6933 -0.3515 -0.1211
   37CHL1   C18 3871   3.095   6.737   5.685  0.0311  0.0219 -0.0756
   37CHL1  H18A 3872   2.999   6.690   5.655  0.2775 -0.3031 -0.3739
   37CHL1  H18B 3873   3.095   6.768   5.791 -2.2466 -0.2782  0.0654
   37CHL1  H18C 3874   3.124   6.830   5.632  0.8549 -0.0641  0.2063
   37CHL1   C12 3875   3.179   6.494   5.740 -0.0567  0.1425 -0.9464
   37CHL1  H12A 3876   3.079   6.458   5.709  0.2445 -1.0458 -0.6214
   37CHL1  H12B 3877   3.255   6.418   5.709 -0.2343  0.7010 -2.9219
   37CHL1   C11 3878   3.167   6.508   5.891 -0.2550  0.3245 -0.1632
   37CHL1  H11A 3879   3.067   6.552   5.915 -0.5383  1.4135 -3.0255
   37CHL1  H11B 3880   3.159   6.405   5.932  4.0194 -0.1166 -0.0227
   37CHL1    C9 3881   3.282   6.575   5.968 -0.0032 -0.3906 -0.4004
   37CHL1    H9 3882   3.365   6.504   5.948 -0.9234 -1.5886 -0.0929
   37CHL1   C10 3883   3.274   6.581   6.129  0.0681 -0.7732  0.1938
   37CHL1   C19 3884   3.133   6.622   6.167 -0.2263 -0.1365  0.0199
   37CHL1  H19A 3885   3.073   6.530   6.157  4.1256 -3.4785  1.3376
   37CHL1  H19B 3886   3.127   6.655   6.273 -1.5169  2.6434 -0.8265
   37CHL1  H19C 3887   3.094   6.702   6.100  0.0118  0.6146  0.7550
   37CHL1    C1 3888   3.287   6.436   6.186  0.9150 -0.1228  0.8233
   37CHL1   H1A 3889   3.209   6.365   6.154 -0.7489  1.9556  0.0122
   37CHL1   H1B 3890   3.383   6.411   6.136 -0.7572 -1.1680 -2.1526
   37CHL1    C2 3891   3.309   6.425   6.334  0.3598  0.0524 -0.4021
   37CHL1   H2A 3892   3.343   6.321   6.356 -0.7953 -0.1401  0.5649
   37CHL1   H2B 3893   3.214   6.438   6.390  0.6007 -0.7954  0.2317
   37CHL1   C20 3894   3.198   6.604   5.426  0.1245 -0.7087 -0.4163
   37CHL1   H20 3895   3.108   6.668   5.433 -0.0695 -1.1806  2.1323
   37CHL1   C21 3896   3.146   6.462   5.442 -0.1269 -0.2077 -0.6936
   37CHL1  H21A 3897   3.229   6.388   5.438 -1.2120 -1.3974 -1.9774
   37CHL1  H21B 3898   3.086   6.423   5.357  0.6096 -2.7062 -0.1351
   37CHL1  H21C 3899   3.076   6.439   5.524  2.5568 -0.1173  1.7929
   37CHL1   C22 3900   3.271   6.624   5.285  0.2120  0.0789 -0.0602
   37CHL1  H22A 3901   3.333   6.717   5.283 -0.3037  0.4365  0.2023
   37CHL1  H22B 3902   3.334   6.536   5.261  1.4187  0.9113 -0.1038
   37CHL1   C23 3903   3.177   6.637   5.162  0.3624 -0.5020  0.0101
   37CHL1  H23A 3904   3.104   6.554   5.162  1.0173 -1.1046  1.4319
   37CHL1  H23B 3905   3.124   6.733   5.178 -2.8524 -2.2944  0.8139
   37CHL1   C24 3906   3.238   6.655   5.024 -0.0530 -0.4264  0.0652
   37CHL1  H24A 3907   3.158   6.652   4.946  0.9217  1.8507 -1.1082
   37CHL1  H24B 3908   3.271   6.760   5.012 -2.5687  0.2713 -1.3302
   37CHL1   C25 3909   3.334   6.551   4.967 -0.8279  0.6490 -0.2476
   37CHL1   H25 3910   3.436   6.563   5.010  0.1493  0.2945 -2.3665
   37CHL1   C26 3911   3.278   6.406   4.974  0.2329 -0.2917 -1.0610
   37CHL1  H26A 3912   3.179   6.418   4.925  0.6930 -1.3841 -2.2976
   37CHL1  H26B 3913   3.343   6.337   4.918  1.9188  0.1920  0.2073
   37CHL1  H26C 3914   3.256   6.358   5.072 -3.4697  0.4973 -1.3499
   37CHL1   C27 3915   3.365   6.586   4.815  0.8950  0.2030  0.1055
   37CHL1  H27A 3916   3.437   6.513   4.771 -1.5757 -1.1934 -1.9237
   37CHL1  H27B 3917   3.270   6.575   4.758  1.0561 -2.2510  0.1803
   37CHL1  H27C 3918   3.415   6.684   4.800  0.0399  0.4556 -1.2609
   38CHL1    C3 3919   6.316   1.009   6.089  0.0357 -0.2222  0.2108
   38CHL1    H3 3920   6.400   0.965   6.030  1.9377  0.4313  2.2742
   38CHL1    O3 3921   6.382   1.050   6.207 -0.3469 -0.1002 -0.3311
   38CHL1   H3' 3922   6.311   1.080   6.265  1.5525 -0.0264  2.1011
   38CHL1    C4 3923   6.262   1.130   6.012  0.2671  0.4244 -0.0661
   38CHL1   H4A 3924   6.183   1.170   6.079  0.2252  2.0294 -1.0221
   38CHL1   H4B 3925   6.339   1.211   6.012 -2.1063  2.8083  0.1763
   38CHL1    C5 3926   6.216   1.092   5.876 -0.1838 -0.7031  0.1776
   38CHL1    C6 3927   6.273   1.129   5.761  0.1976 -0.0527  0.5402
   38CHL1    H6 3928   6.350   1.207   5.749  1.8951 -1.8601 -1.0950
   38CHL1    C7 3929   6.231   1.088   5.623  0.0880 -0.0664 -0.0726
   38CHL1   H7A 3930   6.217   1.178   5.559 -0.1737  1.3545  1.8801
   38CHL1   H7B 3931   6.314   1.025   5.582  0.7304  0.0914  0.9657
   38CHL1    C8 3932   6.095   1.017   5.624  0.1281  0.9575 -0.2415
   38CHL1    H8 3933   6.017   1.094   5.638 -0.0864  0.8477 -0.7957
   38CHL1   C14 3934   6.073   0.941   5.501  0.4057  0.1148 -0.7518
   38CHL1   H14 3935   6.147   0.861   5.521  0.0709  0.4252  2.0071
   38CHL1   C15 3936   6.107   1.014   5.370 -0.8252 -0.3108 -0.1494
   38CHL1  H15A 3937   6.069   1.118   5.376  0.6636  0.2132  0.3908
   38CHL1  H15B 3938   6.217   1.014   5.357 -0.8827  1.0367 -0.8097
   38CHL1   C16 3939   6.021   0.942   5.264  0.2878  0.3643  0.8133
   38CHL1  H16A 3940   5.944   1.011   5.223  0.0569 -1.2973 -1.7382
   38CHL1  H16B 3941   6.080   0.902   5.179 -2.0081 -0.2637 -0.5828
   38CHL1   C17 3942   5.955   0.824   5.336 -0.9483 -0.0281  1.3919
   38CHL1   H17 3943   6.039   0.751   5.338  2.1706  3.2549 -0.0289
   38CHL1   C13 3944   5.937   0.877   5.480 -0.7072  0.0617  1.1518
   38CHL1   C18 3945   5.820   0.983   5.479 -0.1031  0.3684 -0.5362
   38CHL1  H18A 3946   5.837   1.043   5.570 -1.6199  1.9741 -1.2530
   38CHL1  H18B 3947   5.829   1.057   5.397 -0.6551  0.5365 -0.4506
   38CHL1  H18C 3948   5.722   0.930   5.483 -0.0914  0.3866 -0.0049
   38CHL1   C12 3949   5.915   0.777   5.585  0.5174  0.0514 -0.3662
   38CHL1  H12A 3950   5.805   0.759   5.584 -0.2985  3.9839 -0.3281
   38CHL1  H12B 3951   5.985   0.693   5.567  2.4949  1.6540 -0.5950
   38CHL1   C11 3952   5.948   0.837   5.728 -0.1555 -0.1370  0.1895
   38CHL1  H11A 3953   5.865   0.903   5.762  0.5648 -0.4137  2.7038
   38CHL1  H11B 3954   5.948   0.757   5.806  0.7758 -0.6187 -0.2894
   38CHL1    C9 3955   6.077   0.924   5.742  0.6123 -0.1728 -0.5288
   38CHL1    H9 3956   6.156   0.848   5.727  1.3145  0.2554  0.8215
   38CHL1   C10 3957   6.104   0.986   5.879 -0.0580 -0.6629  0.0635
   38CHL1   C19 3958   5.970   1.067   5.924 -0.0999  0.9276 -0.2410
   38CHL1  H19A 3959   5.995   1.130   6.012  0.6696  0.7341 -0.3098
   38CHL1  H19B 3960   5.946   1.139   5.843  1.7211  0.7775 -0.9639
   38CHL1  H19C 3961   5.900   0.984   5.948  0.4736  0.6810  0.6079
   38CHL1    C1 3962   6.142   0.871   5.978  0.2504 -0.5055  0.0161
   38CHL1   H1A 3963   6.053   0.807   5.998  0.2522 -1.0298 -1.5597
   38CHL1   H1B 3964   6.212   0.804   5.925  0.9383  1.5855 -1.8302
   38CHL1    C2 3965   6.201   0.910   6.112 -0.4987  0.3425 -0.0487
   38CHL1   H2A 3966   6.224   0.829   6.183  1.2068  0.0970 -0.8502
   38CHL1   H2B 3967   6.123   0.954   6.177 -2.1922  1.0163 -2.3721
   38CHL1   C20 3968   5.844   0.751   5.266  0.5463 -0.0522 -0.0151
   38CHL1   H20 3969   5.751   0.810   5.281  1.0343  1.1321 -1.3983
   38CHL1   C21 3970   5.829   0.606   5.330 -0.2820  0.6511  0.1710
   38CHL1  H21A 3971   5.924   0.548   5.324 -1.4816 -1.3655 -0.4171
   38CHL1  H21B 3972   5.753   0.549   5.272  0.5186  0.8409 -1.1060
   38CHL1  H21C 3973   5.792   0.605   5.435 -0.9679 -0.5660 -0.0654
   38CHL1   C22 3974   5.872   0.736   5.110  0.2256  0.2844 -0.0833
   38CHL1  H22A 3975   5.880   0.836   5.063 -0.9633  0.4942  0.1396
   38CHL1  H22B 3976   5.968   0.682   5.092  0.3518  0.3866  0.2567
   38CHL1   C23 3977   5.756   0.670   5.031  0.4191 -0.4586 -0.2010
   38CHL1  H23A 3978   5.768   0.559   5.035 -1.5067 -0.7712 -1.8258
   38CHL1  H23B 3979   5.653   0.690   5.067  0.4592  0.1395 -0.4149
   38CHL1   C24 3980   5.768   0.728   4.883 -0.2793 -0.5939  0.0168
   38CHL1  H24A 3981   5.718   0.828   4.886  0.7597 -0.0704  0.2679
   38CHL1  H24B 3982   5.875   0.743   4.859 -0.2058  0.9613  1.1657
   38CHL1   C25 3983   5.702   0.637   4.775  0.0352 -0.3268 -0.0867
   38CHL1   H25 3984   5.671   0.708   4.696 -2.5504 -1.2859 -0.0370
   38CHL1   C26 3985   5.798   0.524   4.731  0.6507  0.4316 -0.2048
   38CHL1  H26A 3986   5.901   0.566   4.740 -0.5523  3.8167 -1.0733
   38CHL1  H26B 3987   5.796   0.442   4.806 -2.3435 -0.6744 -1.3506
   38CHL1  H26C 3988   5.780   0.484   4.629  0.1376  2.1683 -0.8185
   38CHL1   C27 3989   5.566   0.578   4.815  0.2252 -0.0524  0.1239
   38CHL1  H27A 3990   5.494   0.662   4.827 -0.8211 -1.0161  0.8702
   38CHL1  H27B 3991   5.532   0.512   4.733 -2.5575  0.5883  0.6598
   38CHL1  H27C 3992   5.575   0.520   4.909 -1.3357 -0.6345 -0.0599
   39CHL1    C3 3993   6.379   1.644   5.985  0.5869 -0.3459 -0.2426
   39CHL1    H3 3994   6.326   1.708   6.059  1.7273  0.3182  0.0210
   39CHL1    O3 3995   6.513   1.646   6.035  0.3433 -0.1842  0.1494
   39CHL1   H3' 3996   6.553   1.569   5.993  0.5678  0.3494 -0.6509
   39CHL1    C4 3997   6.330   1.503   5.975  0.2052 -0.1776 -0.3445
   39CHL1   H4A 3998   6.397   1.450   5.905  1.1865  0.1355  0.3368
   39CHL1   H4B 3999   6.342   1.452   6.073 -2.7326 -2.0997 -0.8651
   39CHL1    C5 4000   6.187   1.497   5.916  0.5903  0.0253 -0.9507
   39CHL1    C6 4001   6.078   1.446   5.985 -0.0681  0.4796 -0.9123
   39CHL1    H6 4002   6.089   1.397   6.083  1.3927  1.7686 -0.3793
   39CHL1    C7 4003   5.940   1.448   5.925 -0.0784  0.2392 -0.3276
   39CHL1   H7A 4004   5.883   1.359   5.957  3.0674 -1.1936  1.6872
   39CHL1   H7B 4005   5.877   1.529   5.969 -0.2260 -0.4220  0.6923
   39CHL1    C8 4006   5.942   1.461   5.773 -0.0114  0.2233 -0.3137
   39CHL1    H8 4007   5.979   1.361   5.739 -1.3531 -0.3720 -0.0588
   39CHL1   C14 4008   5.798   1.472   5.721  0.6808 -0.3994  0.4927
   39CHL1   H14 4009   5.751   1.556   5.776  1.2023  1.2147 -1.4321
   39CHL1   C15 4010   5.708   1.354   5.743 -0.7762 -0.2133  0.3143
   39CHL1  H15A 4011   5.765   1.269   5.701 -1.0639 -0.6086  0.7087
   39CHL1  H15B 4012   5.677   1.340   5.849 -3.5906  1.3068 -0.1918
   39CHL1   C16 4013   5.587   1.375   5.656  0.4022 -0.2679  0.1146
   39CHL1  H16A 4014   5.570   1.286   5.591  0.4298  0.2805 -0.6564
   39CHL1  H16B 4015   5.500   1.406   5.718 -0.1922  0.9888 -1.2849
   39CHL1   C17 4016   5.632   1.487   5.556  0.0621 -0.5461 -0.1076
   39CHL1   H17 4017   5.605   1.587   5.598  1.6499 -0.7456  1.4831
   39CHL1   C13 4018   5.785   1.498   5.577  0.7572 -0.3754  0.0938
   39CHL1   C18 4019   5.853   1.393   5.480 -0.1407 -0.1118 -0.2939
   39CHL1  H18A 4020   5.956   1.375   5.516 -0.4590  2.6901  2.4495
   39CHL1  H18B 4021   5.795   1.298   5.484  0.0163 -0.2773 -1.5498
   39CHL1  H18C 4022   5.846   1.437   5.379  0.1129 -0.0901 -0.3015
   39CHL1   C12 4023   5.846   1.633   5.544  0.3137  0.2452  0.1444
   39CHL1  H12A 4024   5.834   1.652   5.436 -0.1874  0.0749  0.1676
   39CHL1  H12B 4025   5.802   1.714   5.605 -0.8056 -0.5281  0.4061
   39CHL1   C11 4026   5.997   1.640   5.584  0.4259  0.4250  0.4262
   39CHL1  H11A 4027   6.049   1.571   5.514 -2.6134 -0.4979 -1.0805
   39CHL1  H11B 4028   6.039   1.742   5.571  0.7691  0.8112  3.6811
   39CHL1    C9 4029   6.020   1.586   5.736  0.6887 -0.4951  0.0141
   39CHL1    H9 4030   5.974   1.663   5.802 -0.8079 -3.1683  2.3113
   39CHL1   C10 4031   6.166   1.572   5.776 -0.6087  0.6080  0.7226
   39CHL1   C19 4032   6.234   1.494   5.657 -0.0099 -0.5500 -0.3069
   39CHL1  H19A 4033   6.250   1.559   5.569  1.1932 -1.8761 -1.1065
   39CHL1  H19B 4034   6.332   1.460   5.696  0.4448  1.5533  0.5609
   39CHL1  H19C 4035   6.164   1.420   5.612 -0.5597 -0.4791  0.4091
   39CHL1    C1 4036   6.230   1.711   5.797 -0.1887  0.5489  0.0373
   39CHL1   H1A 4037   6.231   1.759   5.697  0.1052  0.4436 -0.0119
   39CHL1   H1B 4038   6.157   1.775   5.852  0.7029  0.6061  1.1873
   39CHL1    C2 4039   6.373   1.712   5.845  0.2788 -0.7342 -0.0184
   39CHL1   H2A 4040   6.414   1.814   5.861  2.2399 -1.5510  0.5147
   39CHL1   H2B 4041   6.429   1.649   5.772  1.4388 -1.0861  1.1453
   39CHL1   C20 4042   5.569   1.488   5.421 -0.0636  0.0885 -0.4494
   39CHL1   H20 4043   5.632   1.563   5.367  2.5870 -0.7164  1.3329
   39CHL1   C21 4044   5.428   1.540   5.436 -0.0858  0.3605  0.8227
   39CHL1  H21A 4045   5.413   1.628   5.503 -4.3323  0.2145  0.3399
   39CHL1  H21B 4046   5.354   1.467   5.476 -2.7891  2.7643  0.5514
   39CHL1  H21C 4047   5.401   1.579   5.335 -0.0692  1.1262  1.1074
   39CHL1   C22 4048   5.568   1.352   5.332  0.0706 -0.4529  0.3180
   39CHL1  H22A 4049   5.672   1.315   5.323  0.2428  0.0955 -0.0162
   39CHL1  H22B 4050   5.503   1.285   5.392 -0.3571  1.1130  1.6573
   39CHL1   C23 4051   5.519   1.356   5.187  0.1992  0.3649 -0.1308
   39CHL1  H23A 4052   5.418   1.402   5.178 -0.3486 -0.2888  2.1396
   39CHL1  H23B 4053   5.580   1.410   5.111  1.1010  0.7587  0.8522
   39CHL1   C24 4054   5.504   1.212   5.125  0.1425  0.5084 -0.0636
   39CHL1  H24A 4055   5.603   1.164   5.141  0.3501  1.0236  0.2145
   39CHL1  H24B 4056   5.426   1.155   5.178  0.8366 -0.3711  0.0380
   39CHL1   C25 4057   5.471   1.205   4.975  0.4429  0.1618 -0.3508
   39CHL1   H25 4058   5.396   1.286   4.960  0.8254  0.9109  1.5106
   39CHL1   C26 4059   5.590   1.223   4.877  0.1760  0.5220 -0.0899
   39CHL1  H26A 4060   5.576   1.199   4.769  0.2064  2.2299 -0.5047
   39CHL1  H26B 4061   5.625   1.328   4.881 -1.6907  1.1536  0.5097
   39CHL1  H26C 4062   5.669   1.152   4.911 -0.9781 -0.3128  0.9528
   39CHL1   C27 4063   5.393   1.074   4.940 -0.6720  0.0846 -0.1067
   39CHL1  H27A 4064   5.364   1.070   4.832 -0.5299  2.2381 -0.2629
   39CHL1  H27B 4065   5.455   0.984   4.957 -0.4836  0.0665 -0.8468
   39CHL1  H27C 4066   5.299   1.076   4.998 -1.6704  2.1923 -1.6349
   40CHL1    C3 4067   0.297   0.292   6.576  0.5301 -0.4005  0.3016
   40CHL1    H3 4068   0.354   0.387   6.568  2.8401 -1.8224 -1.4196
   40CHL1    O3 4069   0.256   0.273   6.709  0.0257 -0.4333  0.7103
   40CHL1   H3' 4070   0.211   0.355   6.731 -0.2015 -0.0601 -1.0116
   40CHL1    C4 4071   0.179   0.306   6.477  0.1172 -0.3634  0.6734
   40CHL1   H4A 4072   0.116   0.215   6.484 -1.6907  0.8092  0.0815
   40CHL1   H4B 4073   0.118   0.395   6.503 -1.3552 -0.6757 -1.4875
   40CHL1    C5 4074   0.218   0.332   6.331 -0.2423 -1.3365  0.3798
   40CHL1    C6 4075   0.167   0.435   6.258  0.0595 -0.2546  0.0352
   40CHL1    H6 4076   0.094   0.506   6.298  0.7801  0.9011 -0.6563
   40CHL1    C7 4077   0.185   0.457   6.110  0.0033 -0.3384  0.0491
   40CHL1   H7A 4078   0.091   0.476   6.054  0.0064 -1.8738 -0.5207
   40CHL1   H7B 4079   0.268   0.530   6.094  1.8548 -2.4257 -0.3174
   40CHL1    C8 4080   0.247   0.326   6.045 -0.3291  0.3347 -0.3123
   40CHL1    H8 4081   0.162   0.254   6.043 -1.8404  2.0519 -0.8095
   40CHL1   C14 4082   0.304   0.352   5.902  0.3938 -0.0558 -0.1576
   40CHL1   H14 4083   0.394   0.414   5.924 -0.0557  0.0854  1.4282
   40CHL1   C15 4084   0.216   0.436   5.807  0.1922  0.4408 -0.4382
   40CHL1  H15A 4085   0.107   0.424   5.818 -0.0890  2.2746 -0.8609
   40CHL1  H15B 4086   0.237   0.545   5.814  1.6725  0.0719  2.2622
   40CHL1   C16 4087   0.273   0.400   5.662  0.2867 -0.5059 -0.1376
   40CHL1  H16A 4088   0.186   0.349   5.615 -1.7404  2.9885 -0.5567
   40CHL1  H16B 4089   0.319   0.483   5.603  0.2275 -1.1445 -1.1021
   40CHL1   C17 4090   0.387   0.294   5.684 -0.5284 -0.5016 -0.1043
   40CHL1   H17 4091   0.479   0.355   5.693  0.7342 -1.9840 -2.3168
   40CHL1   C13 4092   0.361   0.227   5.828 -0.1328 -0.3883  0.1798
   40CHL1   C18 4093   0.245   0.126   5.814  0.2374 -0.8171 -0.0244
   40CHL1  H18A 4094   0.290   0.035   5.767 -1.0730 -1.6669  0.3259
   40CHL1  H18B 4095   0.197   0.104   5.911  1.3870  1.5744  1.1904
   40CHL1  H18C 4096   0.169   0.175   5.749 -0.5545 -0.7093  0.9768
   40CHL1   C12 4097   0.484   0.187   5.913  0.3096  0.0075 -0.8175
   40CHL1  H12A 4098   0.536   0.104   5.861 -2.1116 -2.5257  0.5217
   40CHL1  H12B 4099   0.557   0.267   5.934  0.5834 -0.8941  2.0802
   40CHL1   C11 4100   0.437   0.147   6.054  0.3720  0.4275  0.5807
   40CHL1  H11A 4101   0.368   0.060   6.049  1.5038 -0.4248 -2.6154
   40CHL1  H11B 4102   0.521   0.115   6.119  1.8560  2.3250 -0.2863
   40CHL1    C9 4103   0.360   0.260   6.133  0.4879 -0.1197  0.0650
   40CHL1    H9 4104   0.446   0.326   6.157  0.5439 -0.6257  1.3363
   40CHL1   C10 4105   0.313   0.225   6.281 -0.4406 -0.3194 -0.1963
   40CHL1   C19 4106   0.241   0.088   6.276 -0.3884  0.5688 -0.1958
   40CHL1  H19A 4107   0.176   0.061   6.362 -1.1613  0.5879 -0.7518
   40CHL1  H19B 4108   0.176   0.090   6.185  1.4876  0.9953 -1.5888
   40CHL1  H19C 4109   0.313   0.004   6.269  0.7544  1.5227 -0.1281
   40CHL1    C1 4110   0.433   0.218   6.380 -0.0300  0.1873  0.8603
   40CHL1   H1A 4111   0.490   0.129   6.346  1.1707  1.0985  0.4210
   40CHL1   H1B 4112   0.506   0.302   6.372  1.1549 -0.9645 -1.5549
   40CHL1    C2 4113   0.395   0.180   6.524  0.0016 -0.9911  0.0150
   40CHL1   H2A 4114   0.479   0.172   6.596 -1.9337 -1.8374  2.2895
   40CHL1   H2B 4115   0.341   0.083   6.523  1.0754 -1.6578 -2.3693
   40CHL1   C20 4116   0.420   0.205   5.569  0.0911  0.4238  0.0800
   40CHL1   H20 4117   0.335   0.134   5.560  0.4396 -0.3779  2.3881
   40CHL1   C21 4118   0.544   0.117   5.601 -0.2029 -0.6287 -0.2257
   40CHL1  H21A 4119   0.620   0.183   5.646 -2.5775  1.7971  0.4810
   40CHL1  H21B 4120   0.586   0.072   5.508  3.7201 -0.2641  1.1837
   40CHL1  H21C 4121   0.517   0.035   5.671  0.0331  0.1941  0.8595
   40CHL1   C22 4122   0.430   0.279   5.434  0.0416  0.4355  0.7780
   40CHL1  H22A 4123   0.352   0.357   5.422  0.9861  1.0765 -1.9493
   40CHL1  H22B 4124   0.531   0.325   5.444  0.8315 -1.1774  0.4758
   40CHL1   C23 4125   0.403   0.207   5.297  0.4382  0.4754  0.4297
   40CHL1  H23A 4126   0.484   0.133   5.279 -1.2840 -1.1359 -1.0425
   40CHL1  H23B 4127   0.306   0.153   5.299  1.3307 -1.2853 -0.9064
   40CHL1   C24 4128   0.409   0.307   5.178  0.3229  0.3733 -0.5517
   40CHL1  H24A 4129   0.323   0.377   5.189  1.1334  1.5528 -1.4311
   40CHL1  H24B 4130   0.500   0.370   5.192  0.3511  0.1621  0.2823
   40CHL1   C25 4131   0.415   0.259   5.033  0.1611  0.3613  0.5009
   40CHL1   H25 4132   0.329   0.193   5.011  1.3239 -0.5734 -1.4666
   40CHL1   C26 4133   0.403   0.382   4.940  0.4158  0.0140 -0.7398
   40CHL1  H26A 4134   0.314   0.436   4.978  0.3456 -1.5276  1.4754
   40CHL1  H26B 4135   0.486   0.456   4.954  0.0474 -0.1852  4.4017
   40CHL1  H26C 4136   0.387   0.330   4.843 -0.8021 -0.8004 -0.1121
   40CHL1   C27 4137   0.540   0.176   5.004 -0.4370 -0.5407  0.6131
   40CHL1  H27A 4138   0.530   0.080   5.058 -0.6772 -1.4809 -1.0473
   40CHL1  H27B 4139   0.534   0.149   4.897 -0.1174  2.1584 -0.1533
   40CHL1  H27C 4140   0.638   0.226   5.024 -0.0510 -0.2701 -1.6956
   41CHL1    C3 4141   2.857   5.513   6.613  0.5989 -0.4599 -0.2209
   41CHL1    H3 4142   2.938   5.439   6.625  1.2112  0.0450 -1.0858
   41CHL1    O3 4143   2.796   5.560   6.739 -0.1914 -0.0324  0.3912
   41CHL1   H3' 4144   2.716   5.603   6.708  0.6088 -0.2527 -2.2302
   41CHL1    C4 4145   2.915   5.629   6.533 -0.3034 -0.2178  0.5400
   41CHL1   H4A 4146   2.840   5.711   6.537 -1.7101 -1.4920  1.0547
   41CHL1   H4B 4147   3.002   5.652   6.598  0.5129  0.7634 -0.8432
   41CHL1    C5 4148   2.967   5.594   6.393 -0.2329  0.0609  0.0967
   41CHL1    C6 4149   3.099   5.595   6.358  0.3019 -0.2197 -1.0230
   41CHL1    H6 4150   3.169   5.637   6.431  0.7196  1.6297 -2.4094
   41CHL1    C7 4151   3.156   5.558   6.226 -0.8754  0.8227 -0.3942
   41CHL1   H7A 4152   3.212   5.648   6.193 -1.2215  1.5801  1.0299
   41CHL1   H7B 4153   3.224   5.470   6.228 -0.3059  1.2641 -0.1241
   41CHL1    C8 4154   3.048   5.531   6.122 -0.0551 -0.0375 -0.0265
   41CHL1    H8 4155   3.006   5.626   6.084 -0.0088 -0.3965 -1.0230
   41CHL1   C14 4156   3.095   5.460   5.998 -0.0785  0.1317 -0.3175
   41CHL1   H14 4157   3.142   5.366   6.033  3.8666  1.8903 -0.3868
   41CHL1   C15 4158   3.212   5.525   5.922  0.3871  0.2942 -0.3241
   41CHL1  H15A 4159   3.199   5.635   5.913 -0.9904  0.0951 -1.0456
   41CHL1  H15B 4160   3.306   5.494   5.972 -0.3373 -4.5625 -1.4516
   41CHL1   C16 4161   3.205   5.459   5.785 -0.6627 -0.2496  0.0188
   41CHL1  H16A 4162   3.196   5.540   5.710  1.6309 -0.9802 -1.1246
   41CHL1  H16B 4163   3.294   5.400   5.756  0.1144  1.5515 -1.4914
   41CHL1   C17 4164   3.070   5.378   5.781 -0.2428  0.0256  0.3137
   41CHL1   H17 4165   3.099   5.278   5.819 -1.8203  0.0478  1.6653
   41CHL1   C13 4166   2.986   5.431   5.897 -0.0621  0.6278  0.1237
   41CHL1   C18 4167   2.924   5.570   5.842 -0.0728  0.1063 -0.5268
   41CHL1  H18A 4168   3.004   5.614   5.780  0.1836 -2.4188 -2.1521
   41CHL1  H18B 4169   2.836   5.546   5.777  0.2799  0.0961 -1.0062
   41CHL1  H18C 4170   2.880   5.642   5.914 -0.4703 -0.8514  0.2200
   41CHL1   C12 4171   2.882   5.339   5.954 -0.1176  0.1624 -0.0680
   41CHL1  H12A 4172   2.804   5.318   5.878 -0.7505  0.3769  0.5057
   41CHL1  H12B 4173   2.935   5.243   5.972 -0.5215  0.3370  2.4261
   41CHL1   C11 4174   2.823   5.395   6.077 -0.0740 -0.1836  0.9125
   41CHL1  H11A 4175   2.752   5.477   6.051 -0.8963 -1.1479  0.0580
   41CHL1  H11B 4176   2.755   5.323   6.128 -1.8447  1.6754  1.3195
   41CHL1    C9 4177   2.927   5.451   6.180 -0.1147 -0.0284  0.1410
   41CHL1    H9 4178   2.980   5.362   6.219 -1.2332 -0.3013  1.0724
   41CHL1   C10 4179   2.856   5.521   6.309 -0.3834 -0.2554 -0.0182
   41CHL1   C19 4180   2.759   5.628   6.282 -0.2273  0.1521  0.0102
   41CHL1  H19A 4181   2.793   5.704   6.209 -2.4492 -0.2497 -1.5543
   41CHL1  H19B 4182   2.662   5.587   6.247 -0.3343  1.5006 -1.3745
   41CHL1  H19C 4183   2.737   5.686   6.374  1.1555  2.9094 -1.2698
   41CHL1    C1 4184   2.794   5.407   6.397  0.0341  0.2402 -0.1598
   41CHL1   H1A 4185   2.708   5.359   6.345 -0.7874 -0.2331  1.5631
   41CHL1   H1B 4186   2.867   5.326   6.419 -0.3601  0.1794  0.9559
   41CHL1    C2 4187   2.745   5.449   6.533  0.3688  0.3294 -0.0887
   41CHL1   H2A 4188   2.701   5.367   6.593  0.3432 -0.1569 -0.7577
   41CHL1   H2B 4189   2.669   5.530   6.519  1.2403  1.1316 -0.3239
   41CHL1   C20 4190   3.006   5.352   5.642 -0.1489  0.1117  0.6390
   41CHL1   H20 4191   2.903   5.316   5.662 -1.2660  3.0626  0.7899
   41CHL1   C21 4192   3.093   5.241   5.580  0.0335  0.1189 -0.7032
   41CHL1  H21A 4193   3.095   5.146   5.638 -0.1750 -0.9298 -2.3332
   41CHL1  H21B 4194   3.196   5.280   5.566 -0.1604  1.4356  1.1814
   41CHL1  H21C 4195   3.057   5.211   5.479 -1.6695  0.4114 -0.2090
   41CHL1   C22 4196   3.002   5.480   5.548 -0.2847  0.3749 -0.6418
   41CHL1  H22A 4197   2.925   5.552   5.582  0.9744  2.0499 -1.2232
   41CHL1  H22B 4198   3.103   5.527   5.547 -1.3180  2.7131  0.1768
   41CHL1   C23 4199   2.935   5.450   5.411 -0.2813  0.0750 -0.2540
   41CHL1  H23A 4200   3.008   5.384   5.357 -1.8474 -1.6252 -0.3952
   41CHL1  H23B 4201   2.838   5.397   5.415  0.4674 -1.5930 -2.0649
   41CHL1   C24 4202   2.934   5.578   5.321 -0.2287  0.1986 -0.6232
   41CHL1  H24A 4203   2.873   5.660   5.366 -0.5931  0.2991 -1.2896
   41CHL1  H24B 4204   3.038   5.616   5.314 -0.9378  2.2647 -0.7104
   41CHL1   C25 4205   2.859   5.552   5.179 -0.1586 -0.6288 -0.8609
   41CHL1   H25 4206   2.761   5.510   5.210  0.2044  0.2223  1.7255
   41CHL1   C26 4207   2.844   5.683   5.099  0.1855  0.1774  0.1379
   41CHL1  H26A 4208   2.787   5.760   5.155 -3.0344 -1.3454 -0.8297
   41CHL1  H26B 4209   2.944   5.721   5.066 -0.1945 -0.2034 -1.5414
   41CHL1  H26C 4210   2.791   5.659   5.005 -1.3329  2.8377  0.1965
   41CHL1   C27 4211   2.934   5.457   5.093  0.2562 -0.6318 -0.7991
   41CHL1  H27A 4212   3.035   5.490   5.062  0.2988  0.3665  0.3370
   41CHL1  H27B 4213   2.956   5.355   5.133  2.0232 -0.6005 -1.5968
   41CHL1  H27C 4214   2.880   5.441   4.997  0.0115  0.6572 -0.8905
   42CHL1    C3 4215   1.014   2.148   6.406 -0.4002  0.2025 -0.1534
   42CHL1    H3 4216   1.047   2.043   6.399  1.6818  0.8962 -2.2415
   42CHL1    O3 4217   1.069   2.195   6.526 -0.3640 -0.1701 -0.7651
   42CHL1   H3' 4218   1.048   2.289   6.518  1.8140  0.3600 -1.0046
   42CHL1    C4 4219   1.074   2.225   6.289  0.5093  0.0266  0.0420
   42CHL1   H4A 4220   1.067   2.335   6.303  0.8722  0.1350 -0.5842
   42CHL1   H4B 4221   1.184   2.214   6.274  0.9440  2.3644  1.1481
   42CHL1    C5 4222   1.009   2.182   6.157 -0.9084  0.1857 -0.6185
   42CHL1    C6 4223   1.074   2.158   6.046 -0.1440 -0.4386 -0.2325
   42CHL1    H6 4224   1.184   2.155   6.049 -0.1149 -3.4156 -0.9352
   42CHL1    C7 4225   1.025   2.129   5.907  0.1772 -0.0629  0.3619
   42CHL1   H7A 4226   1.096   2.166   5.830 -1.9120  1.0526 -1.1470
   42CHL1   H7B 4227   1.013   2.019   5.895 -2.6576  0.1660  0.3187
   42CHL1    C8 4228   0.883   2.187   5.893  0.6982 -0.4124  0.6761
   42CHL1    H8 4229   0.883   2.298   5.897 -1.4418 -0.1909 -2.3659
   42CHL1   C14 4230   0.822   2.145   5.763 -0.5696 -0.6343  0.2720
   42CHL1   H14 4231   0.815   2.034   5.759 -1.9295 -0.8090  3.7815
   42CHL1   C15 4232   0.886   2.188   5.619  1.1872 -0.2716  0.2174
   42CHL1  H15A 4233   0.921   2.293   5.636  0.6841 -0.0781  0.0788
   42CHL1  H15B 4234   0.965   2.114   5.595  0.6826 -0.6522 -0.2926
   42CHL1   C16 4235   0.774   2.169   5.518  0.5912  0.2499 -0.3428
   42CHL1  H16A 4236   0.764   2.256   5.450  0.4582 -0.3528 -1.1098
   42CHL1  H16B 4237   0.787   2.081   5.451 -4.7221  0.0797 -1.5244
   42CHL1   C17 4238   0.644   2.133   5.600 -0.3072 -0.0243 -0.7592
   42CHL1   H17 4239   0.649   2.024   5.620  3.0273  0.2931  0.8845
   42CHL1   C13 4240   0.670   2.187   5.746  0.4343 -0.0379 -0.0471
   42CHL1   C18 4241   0.651   2.339   5.751  0.1346  0.0512  0.2069
   42CHL1  H18A 4242   0.548   2.375   5.732 -0.0240 -0.5855 -0.1914
   42CHL1  H18B 4243   0.680   2.373   5.853  0.5038  0.1071  0.0827
   42CHL1  H18C 4244   0.711   2.386   5.671 -0.4555  0.2889 -0.1001
   42CHL1   C12 4245   0.604   2.110   5.866  0.0903  0.5144  0.2146
   42CHL1  H12A 4246   0.497   2.135   5.882 -0.3484  0.3585 -2.0715
   42CHL1  H12B 4247   0.601   2.001   5.847 -1.8462 -0.0840  3.2956
   42CHL1   C11 4248   0.653   2.148   6.002 -0.2112  0.5670 -0.2481
   42CHL1  H11A 4249   0.625   2.251   6.032 -2.2187  0.4353 -1.5054
   42CHL1  H11B 4250   0.605   2.089   6.084  0.8877  1.0853  0.8043
   42CHL1    C9 4251   0.805   2.132   6.020  0.7327 -0.2203  0.2043
   42CHL1    H9 4252   0.830   2.024   6.029  0.3735 -0.3002  0.2546
   42CHL1   C10 4253   0.857   2.199   6.152  0.1342  0.8898  0.3019
   42CHL1   C19 4254   0.822   2.346   6.161 -0.2728 -0.1071 -0.6785
   42CHL1  H19A 4255   0.833   2.402   6.066 -1.2650  2.2446  0.5098
   42CHL1  H19B 4256   0.714   2.358   6.183 -0.6518 -2.5664 -0.8406
   42CHL1  H19C 4257   0.862   2.394   6.254  1.3087  0.4263 -1.5906
   42CHL1    C1 4258   0.796   2.120   6.273 -0.4154 -0.0306  0.7827
   42CHL1   H1A 4259   0.687   2.138   6.279 -0.4837 -0.4310  0.7669
   42CHL1   H1B 4260   0.815   2.010   6.271 -2.1931 -0.3577 -0.7975
   42CHL1    C2 4261   0.855   2.163   6.405 -0.4290  0.1739 -0.1924
   42CHL1   H2A 4262   0.818   2.106   6.493 -0.9650  0.1207 -0.4507
   42CHL1   H2B 4263   0.834   2.268   6.437 -2.2355  0.1211 -1.0990
   42CHL1   C20 4264   0.522   2.183   5.522  0.0097 -0.2809 -0.0758
   42CHL1   H20 4265   0.538   2.293   5.518  0.8140 -0.2585  2.2886
   42CHL1   C21 4266   0.394   2.161   5.597  0.4030  0.4659  0.0093
   42CHL1  H21A 4267   0.385   2.056   5.634  0.7319  1.1204  2.1215
   42CHL1  H21B 4268   0.304   2.199   5.545  0.7293  0.3693 -0.6344
   42CHL1  H21C 4269   0.401   2.221   5.691 -1.0413  1.0232 -0.2210
   42CHL1   C22 4270   0.515   2.125   5.373  0.9035 -0.4040  0.7612
   42CHL1  H22A 4271   0.423   2.169   5.328  2.4748  0.4786 -1.8642
   42CHL1  H22B 4272   0.586   2.176   5.304 -0.9308 -1.3081 -1.9530
   42CHL1   C23 4273   0.513   1.974   5.363  0.0868 -0.0118 -0.6779
   42CHL1  H23A 4274   0.612   1.929   5.387  1.1280  3.2719  1.9573
   42CHL1  H23B 4275   0.440   1.936   5.437  1.4320 -0.6115  0.3912
   42CHL1   C24 4276   0.483   1.928   5.218 -0.5440  0.1687 -0.7469
   42CHL1  H24A 4277   0.372   1.934   5.214 -0.7526 -1.2230  1.2689
   42CHL1  H24B 4278   0.534   1.995   5.145  3.0813  0.2799  1.6461
   42CHL1   C25 4279   0.537   1.785   5.179 -0.1521 -0.1050 -0.6634
   42CHL1   H25 4280   0.647   1.779   5.192 -0.3901 -0.7562  1.4482
   42CHL1   C26 4281   0.482   1.668   5.260 -0.3115  0.6908 -1.0822
   42CHL1  H26A 4282   0.371   1.665   5.255 -0.3283 -0.6309 -0.2930
   42CHL1  H26B 4283   0.526   1.580   5.209 -3.1557 -0.3210 -1.9557
   42CHL1  H26C 4284   0.513   1.677   5.366  0.8595 -0.8961 -1.2632
   42CHL1   C27 4285   0.490   1.762   5.028  0.5390 -0.3147  0.6724
   42CHL1  H27A 4286   0.379   1.770   5.023  0.5264 -1.2013 -2.0691
   42CHL1  H27B 4287   0.536   1.838   4.962  0.7302 -0.9527  0.0565
   42CHL1  H27C 4288   0.515   1.656   5.005  0.9594 -0.8111  3.1301
   43CHL1    C3 4289   2.262   2.860   6.487 -0.5315  0.3388 -0.0735
   43CHL1    H3 4290   2.265   2.749   6.493 -0.8330 -0.0198 -4.0555
   43CHL1    O3 4291   2.284   2.925   6.612  0.1162 -0.2028 -0.4042
   43CHL1   H3' 4292   2.296   3.017   6.587  1.4210 -0.8427 -2.3954
   43CHL1    C4 4293   2.381   2.893   6.394  0.7035  0.4604  0.5658
   43CHL1   H4A 4294   2.407   3.000   6.407  3.3901 -0.0558  0.0775
   43CHL1   H4B 4295   2.470   2.850   6.444  0.6755 -1.1242 -0.6558
   43CHL1    C5 4296   2.367   2.852   6.246 -0.1577 -0.4342  0.2077
   43CHL1    C6 4297   2.468   2.787   6.178  0.4917 -0.7675  0.2473
   43CHL1    H6 4298   2.559   2.763   6.236  0.8218  3.5422  1.8888
   43CHL1    C7 4299   2.471   2.761   6.031  0.1983 -0.5873  0.1137
   43CHL1   H7A 4300   2.564   2.798   5.982  0.2604 -0.8193  0.0552
   43CHL1   H7B 4301   2.461   2.652   6.011 -0.8096 -0.4524 -0.1340
   43CHL1    C8 4302   2.348   2.826   5.952 -0.4795  0.2582 -0.3030
   43CHL1    H8 4303   2.372   2.932   5.932  2.0294 -0.0493  0.6212
   43CHL1   C14 4304   2.332   2.765   5.813  0.5566  0.0643 -0.0051
   43CHL1   H14 4305   2.296   2.665   5.844  2.1123 -0.0708  1.4559
   43CHL1   C15 4306   2.446   2.739   5.711 -0.5754  0.6992  0.4014
   43CHL1  H15A 4307   2.504   2.832   5.693  1.9157 -0.8542 -0.0844
   43CHL1  H15B 4308   2.515   2.661   5.749 -0.3109  0.4362 -0.6114
   43CHL1   C16 4309   2.370   2.702   5.585 -0.0556 -0.2217  0.0383
   43CHL1  H16A 4310   2.418   2.751   5.498  0.3277  0.1972  0.4833
   43CHL1  H16B 4311   2.384   2.592   5.572  0.1087 -0.2484  0.4038
   43CHL1   C17 4312   2.209   2.728   5.612  0.3295 -0.8692  0.1285
   43CHL1   H17 4313   2.168   2.631   5.647 -0.6908 -0.3192  0.5334
   43CHL1   C13 4314   2.202   2.813   5.736  0.7516 -0.5096 -0.0100
   43CHL1   C18 4315   2.222   2.962   5.697 -0.5288 -0.1977  0.2397
   43CHL1  H18A 4316   2.310   2.979   5.631 -1.3779  0.2859 -0.7927
   43CHL1  H18B 4317   2.138   2.999   5.635 -0.2969  2.0726  1.1840
   43CHL1  H18C 4318   2.221   3.025   5.789  0.8986  0.5847 -0.2409
   43CHL1   C12 4319   2.081   2.780   5.828 -0.0513 -0.7204 -0.2124
   43CHL1  H12A 4320   1.992   2.811   5.769 -1.3739 -2.8753  0.5464
   43CHL1  H12B 4321   2.069   2.672   5.849 -1.1462 -1.0542 -2.3550
   43CHL1   C11 4322   2.091   2.853   5.960  0.2173  0.3446 -0.5376
   43CHL1  H11A 4323   2.088   2.963   5.945 -1.7254  0.5813  1.1226
   43CHL1  H11B 4324   2.002   2.826   6.021 -0.0044 -2.0843 -1.8091
   43CHL1    C9 4325   2.226   2.814   6.039 -0.0234 -0.0165 -0.0181
   43CHL1    H9 4326   2.217   2.705   6.058  0.5637  0.0646  0.7736
   43CHL1   C10 4327   2.239   2.892   6.177 -0.0556  0.0956 -0.4228
   43CHL1   C19 4328   2.251   3.048   6.149 -0.6198  0.5152  0.6279
   43CHL1  H19A 4329   2.337   3.073   6.085  0.1709 -1.1055  1.0031
   43CHL1  H19B 4330   2.151   3.086   6.120 -0.3007  1.4420  0.6991
   43CHL1  H19C 4331   2.263   3.098   6.248 -1.5607 -0.1888  1.1082
   43CHL1    C1 4332   2.117   2.859   6.267  0.5031  0.1672  0.2692
   43CHL1   H1A 4333   2.028   2.905   6.218  0.1638 -1.3115 -0.5530
   43CHL1   H1B 4334   2.092   2.751   6.270  2.8004 -0.5086 -1.7310
   43CHL1    C2 4335   2.137   2.916   6.411  0.0851  0.2286 -0.3677
   43CHL1   H2A 4336   2.049   2.890   6.473 -0.1062  0.9634 -0.3279
   43CHL1   H2B 4337   2.135   3.027   6.408  0.3645  0.2237 -0.8513
   43CHL1   C20 4338   2.129   2.773   5.489  0.4604  0.5227 -0.4850
   43CHL1   H20 4339   2.052   2.844   5.525 -0.4627 -0.6122 -0.1830
   43CHL1   C21 4340   2.061   2.645   5.431 -0.2700 -0.2537 -0.0439
   43CHL1  H21A 4341   2.130   2.579   5.375  0.1132  1.2675 -1.4366
   43CHL1  H21B 4342   1.992   2.698   5.362  0.2089  1.2357  0.5743
   43CHL1  H21C 4343   2.011   2.588   5.513  0.2009 -1.8550 -0.8269
   43CHL1   C22 4344   2.211   2.831   5.372 -0.0778 -0.5161 -0.3208
   43CHL1  H22A 4345   2.278   2.915   5.400 -0.1842 -0.2033 -0.9716
   43CHL1  H22B 4346   2.283   2.761   5.323 -0.9464  1.1344 -4.3643
   43CHL1   C23 4347   2.126   2.886   5.250 -0.0968  0.2469 -0.4723
   43CHL1  H23A 4348   2.076   2.807   5.190  1.2188  0.1218 -1.4358
   43CHL1  H23B 4349   2.046   2.951   5.292  1.5778  1.0843  1.5702
   43CHL1   C24 4350   2.202   2.982   5.159  0.2176 -0.3121  0.3679
   43CHL1  H24A 4351   2.254   3.062   5.216  0.2866 -1.4818  2.0189
   43CHL1  H24B 4352   2.284   2.920   5.117  0.3699 -1.2469  1.9582
   43CHL1   C25 4353   2.118   3.053   5.051  0.4746 -0.0302  0.1528
   43CHL1   H25 4354   2.203   3.102   5.000  1.7710 -2.2966 -0.0129
   43CHL1   C26 4355   2.035   2.969   4.959 -0.2190 -0.2772  0.2656
   43CHL1  H26A 4356   1.942   2.934   5.008 -1.4972  0.5925 -1.4322
   43CHL1  H26B 4357   2.007   3.034   4.873  0.1587 -1.9825 -1.2252
   43CHL1  H26C 4358   2.084   2.880   4.913  0.5458  0.5981 -0.6702
   43CHL1   C27 4359   2.025   3.164   5.110  0.3720 -0.4921 -0.7520
   43CHL1  H27A 4360   2.083   3.227   5.181 -1.2346  1.1115 -0.7954
   43CHL1  H27B 4361   1.986   3.220   5.023 -1.4531 -0.6901 -0.1090
   43CHL1  H27C 4362   1.938   3.114   5.157  0.0239 -0.7026 -1.6155
   44CHL1    C3 4363   2.999   4.487   6.608 -0.2840  0.5213  0.2044
   44CHL1    H3 4364   2.889   4.476   6.617 -0.3573  0.5135 -0.5634
   44CHL1    O3 4365   3.058   4.517   6.731 -0.4149 -0.0429  0.5460
   44CHL1   H3' 4366   3.078   4.610   6.724  0.4890 -0.3302 -1.3547
   44CHL1    C4 4367   3.069   4.363   6.551  0.2737 -0.2473  0.1108
   44CHL1   H4A 4368   3.178   4.374   6.569  0.1864  1.1418 -0.1519
   44CHL1   H4B 4369   3.030   4.279   6.613  1.4792 -0.3926  0.7000
   44CHL1    C5 4370   3.029   4.330   6.403  0.3289 -0.0932 -0.3361
   44CHL1    C6 4371   2.974   4.213   6.365  0.1420  0.9492  0.7046
   44CHL1    H6 4372   2.966   4.129   6.435 -1.0014  2.8016  2.9216
   44CHL1    C7 4373   2.952   4.175   6.225  0.0989 -0.0023  0.0345
   44CHL1   H7A 4374   2.996   4.074   6.215  1.4513  0.6342 -0.8987
   44CHL1   H7B 4375   2.842   4.174   6.214 -0.1040 -0.5342  1.8121
   44CHL1    C8 4376   3.009   4.279   6.125  0.1785 -0.0113  0.4072
   44CHL1    H8 4377   3.116   4.248   6.124 -0.1893 -1.4022  1.0801
   44CHL1   C14 4378   2.938   4.259   5.994 -0.0021 -0.0013  1.0813
   44CHL1   H14 4379   2.831   4.289   6.000 -0.7984 -2.4019  0.1546
   44CHL1   C15 4380   2.941   4.114   5.931 -0.4950 -0.3943  0.2693
   44CHL1  H15A 4381   3.036   4.056   5.944 -0.4848 -1.0562 -2.2274
   44CHL1  H15B 4382   2.874   4.037   5.976  0.1868 -2.2753 -1.7588
   44CHL1   C16 4383   2.934   4.139   5.780 -0.0719 -0.2583  0.4984
   44CHL1  H16A 4384   3.016   4.089   5.725 -0.8107 -0.6958 -0.2169
   44CHL1  H16B 4385   2.843   4.097   5.733 -0.4770 -0.2433  1.2479
   44CHL1   C17 4386   2.940   4.293   5.752 -0.0447 -0.8173  0.1020
   44CHL1   H17 4387   2.836   4.331   5.750  0.4306  0.5317 -1.6113
   44CHL1   C13 4388   3.004   4.353   5.884 -0.0809 -1.0511  0.2573
   44CHL1   C18 4389   3.158   4.331   5.868 -0.7907 -0.4471 -0.0065
   44CHL1  H18A 4390   3.214   4.414   5.818  2.3431 -3.0606 -1.2169
   44CHL1  H18B 4391   3.211   4.328   5.966  2.5479 -0.7459 -1.6747
   44CHL1  H18C 4392   3.183   4.243   5.805  1.0575  0.4730 -0.6330
   44CHL1   C12 4393   2.964   4.495   5.922  0.3356 -0.6295 -0.3439
   44CHL1  H12A 4394   2.994   4.563   5.840  0.7473 -0.2866  0.0856
   44CHL1  H12B 4395   2.856   4.501   5.947  0.2546 -0.1864 -0.7799
   44CHL1   C11 4396   3.037   4.522   6.053  0.3933 -0.1641  0.6037
   44CHL1  H11A 4397   3.146   4.526   6.032  0.1861 -1.8784 -1.0046
   44CHL1  H11B 4398   3.002   4.625   6.078 -1.9921 -0.9185  0.6171
   44CHL1    C9 4399   2.990   4.423   6.164  0.2426  0.3517 -0.4177
   44CHL1    H9 4400   2.879   4.436   6.164 -0.0604 -1.7933  0.1580
   44CHL1   C10 4401   3.049   4.452   6.305  0.1274 -0.5183  0.2588
   44CHL1   C19 4402   3.200   4.472   6.296 -0.8182 -0.3616  0.2211
   44CHL1  H19A 4403   3.212   4.574   6.256 -0.0875 -0.8801 -0.9237
   44CHL1  H19B 4404   3.250   4.458   6.395  0.8853 -1.3869 -0.7324
   44CHL1  H19C 4405   3.252   4.406   6.224 -3.0932 -0.4777 -1.4153
   44CHL1    C1 4406   2.970   4.576   6.367  0.1771  0.9432 -0.2440
   44CHL1   H1A 4407   2.991   4.666   6.305  0.2092 -0.6257 -2.6339
   44CHL1   H1B 4408   2.860   4.561   6.371  0.2504  0.4065 -0.0887
   44CHL1    C2 4409   3.025   4.604   6.506 -0.2644 -0.4282 -1.3414
   44CHL1   H2A 4410   2.975   4.697   6.543  0.0512  0.1121 -2.2364
   44CHL1   H2B 4411   3.135   4.615   6.511 -0.3008 -0.4828  2.4039
   44CHL1   C20 4412   2.997   4.337   5.608  0.4204 -0.4240 -0.0531
   44CHL1   H20 4413   3.104   4.308   5.602  0.1054 -1.6842  0.0616
   44CHL1   C21 4414   3.000   4.490   5.584  0.1314  0.2240 -0.2429
   44CHL1  H21A 4415   3.043   4.510   5.484  0.6416  2.2250  0.3401
   44CHL1  H21B 4416   3.073   4.539   5.653  2.2849  0.7992 -2.7716
   44CHL1  H21C 4417   2.900   4.537   5.593  0.6510  1.3720 -0.2246
   44CHL1   C22 4418   2.935   4.254   5.501  0.4024 -0.1512 -0.0149
   44CHL1  H22A 4419   2.934   4.147   5.529  1.7371  0.3461  2.1255
   44CHL1  H22B 4420   2.827   4.279   5.508  0.5061 -0.1002  2.0511
   44CHL1   C23 4421   2.986   4.261   5.357  0.1898 -0.0414 -0.4261
   44CHL1  H23A 4422   2.969   4.364   5.320  0.0065  1.0428  2.4143
   44CHL1  H23B 4423   3.096   4.245   5.365  0.4044  1.1585 -0.8752
   44CHL1   C24 4424   2.930   4.155   5.261  0.9106 -0.1517 -0.4732
   44CHL1  H24A 4425   2.921   4.054   5.308 -1.8053  0.5733  0.7681
   44CHL1  H24B 4426   2.825   4.182   5.235  0.0748 -0.1851  2.5020
   44CHL1   C25 4427   3.006   4.141   5.127  0.1065  0.1313  0.4140
   44CHL1   H25 4428   3.111   4.149   5.163 -0.0580 -3.1981  2.0217
   44CHL1   C26 4429   2.977   4.019   5.053  0.3681 -0.0944 -0.5257
   44CHL1  H26A 4430   2.868   4.006   5.038 -0.0006 -0.5224  2.0757
   44CHL1  H26B 4431   3.018   4.028   4.950  0.3044 -0.2399 -0.5645
   44CHL1  H26C 4432   3.002   3.922   5.101 -5.1212 -1.0317  1.1284
   44CHL1   C27 4433   2.985   4.270   5.050  0.4639 -0.6946  0.0513
   44CHL1  H27A 4434   3.020   4.362   5.102  0.4335 -0.3314 -0.5573
   44CHL1  H27B 4435   3.038   4.269   4.953  0.9745  0.0364  0.3060
   44CHL1  H27C 4436   2.878   4.278   5.020  0.7135  0.0962 -0.6906
   45CHL1    C3 4437   3.349   5.288   6.760  0.3186 -0.8572 -1.0385
   45CHL1    H3 4438   3.242   5.260   6.766 -0.6866  2.7195  0.0058
   45CHL1    O3 4439   3.377   5.346   6.885 -0.6552  0.0889 -0.3026
   45CHL1   H3' 4440   3.371   5.275   6.949 -1.3233 -0.0430 -0.5040
   45CHL1    C4 4441   3.450   5.170   6.727  0.7568 -0.4099  0.2842
   45CHL1   H4A 4442   3.550   5.215   6.742 -0.1794  1.1477  2.4425
   45CHL1   H4B 4443   3.425   5.096   6.807  0.0181 -0.7312 -0.2254
   45CHL1    C5 4444   3.437   5.101   6.592  0.2012 -0.1165  0.5787
   45CHL1    C6 4445   3.424   4.966   6.577  0.2653 -0.0867  0.0602
   45CHL1    H6 4446   3.425   4.895   6.662 -0.7612 -0.3172 -0.1158
   45CHL1    C7 4447   3.422   4.897   6.439  0.0822 -0.4254  0.6049
   45CHL1   H7A 4448   3.499   4.818   6.431  0.0197 -0.3976 -0.4183
   45CHL1   H7B 4449   3.322   4.850   6.430  0.0598 -0.6153  1.7437
   45CHL1    C8 4450   3.440   4.996   6.317 -0.6899  0.3977 -0.2158
   45CHL1    H8 4451   3.550   4.999   6.307 -0.6507  0.2790  0.1687
   45CHL1   C14 4452   3.394   4.934   6.186  0.4604 -0.4145  0.2435
   45CHL1   H14 4453   3.283   4.938   6.198  0.4621 -0.4037  0.2547
   45CHL1   C15 4454   3.431   4.786   6.163  0.3085 -0.5566  0.3738
   45CHL1  H15A 4455   3.540   4.788   6.183 -0.0479  1.5448  2.5040
   45CHL1  H15B 4456   3.378   4.725   6.240  2.2501 -1.0270  1.3913
   45CHL1   C16 4457   3.383   4.768   6.014  0.6675  0.3697  0.2459
   45CHL1  H16A 4458   3.468   4.718   5.963 -0.1757 -0.4171 -0.4259
   45CHL1  H16B 4459   3.298   4.697   6.012  0.2442  0.6261  3.7162
   45CHL1   C17 4460   3.356   4.904   5.956  0.8239 -0.0541  0.2374
   45CHL1   H17 4461   3.246   4.918   5.962  0.7196 -1.2205  1.5261
   45CHL1   C13 4462   3.422   5.009   6.054  0.0158  0.0017 -0.3149
   45CHL1   C18 4463   3.574   5.013   6.020 -0.4704 -0.7702 -0.2677
   45CHL1  H18A 4464   3.604   4.908   5.997  0.9574 -0.2568 -0.8246
   45CHL1  H18B 4465   3.616   5.074   5.938 -1.7632 -0.2180 -0.5452
   45CHL1  H18C 4466   3.619   5.048   6.115  0.7161  0.4005 -1.2419
   45CHL1   C12 4467   3.354   5.144   6.069  0.2771  0.1132  0.4100
   45CHL1  H12A 4468   3.388   5.214   5.989  1.9800 -0.2824  0.7357
   45CHL1  H12B 4469   3.243   5.144   6.066  0.2231  2.3429 -2.0958
   45CHL1   C11 4470   3.397   5.217   6.200 -0.6653 -0.3927  0.2420
   45CHL1  H11A 4471   3.503   5.241   6.178 -0.4585  0.3705  1.8927
   45CHL1  H11B 4472   3.354   5.319   6.215  2.3218  0.7938  1.6585
   45CHL1    C9 4473   3.382   5.139   6.336 -0.1052  0.2556 -0.7398
   45CHL1    H9 4474   3.274   5.117   6.347  0.1608  0.0137  2.0149
   45CHL1   C10 4475   3.427   5.204   6.475  0.0738 -0.5594 -0.3238
   45CHL1   C19 4476   3.560   5.259   6.453 -0.7502  0.1416 -0.0365
   45CHL1  H19A 4477   3.629   5.196   6.393 -2.8210 -0.7655 -1.6309
   45CHL1  H19B 4478   3.558   5.353   6.393  2.7529  0.2535 -0.1402
   45CHL1  H19C 4479   3.604   5.299   6.547  0.4956 -0.6015 -0.2852
   45CHL1    C1 4480   3.326   5.321   6.506  0.2862  0.9407 -0.1418
   45CHL1   H1A 4481   3.336   5.394   6.423 -1.0590  1.3438  0.0266
   45CHL1   H1B 4482   3.222   5.281   6.504  1.2461 -2.0368  1.9704
   45CHL1    C2 4483   3.355   5.391   6.641  0.1935  0.6196 -0.0896
   45CHL1   H2A 4484   3.278   5.469   6.656 -0.2360  0.0416  0.7828
   45CHL1   H2B 4485   3.450   5.448   6.631  0.0410  0.6759 -1.4770
   45CHL1   C20 4486   3.400   4.910   5.810  0.7512  0.5457  0.5931
   45CHL1   H20 4487   3.509   4.890   5.803  0.7273  0.9921 -2.2295
   45CHL1   C21 4488   3.369   5.045   5.741  0.4082 -0.4663 -0.1284
   45CHL1  H21A 4489   3.426   5.125   5.794 -1.6294  2.2384 -1.7219
   45CHL1  H21B 4490   3.259   5.064   5.733  0.6149  1.0808  0.3204
   45CHL1  H21C 4491   3.407   5.047   5.636  0.5164  2.2600 -0.1024
   45CHL1   C22 4492   3.327   4.794   5.723 -0.3946  0.6585 -0.5578
   45CHL1  H22A 4493   3.352   4.700   5.776 -0.0676  0.2930 -1.3373
   45CHL1  H22B 4494   3.218   4.813   5.734 -0.3191  0.4104  0.7632
   45CHL1   C23 4495   3.385   4.782   5.578 -0.3633  0.7024 -0.5516
   45CHL1  H23A 4496   3.370   4.875   5.519  0.5406  1.8726  0.9837
   45CHL1  H23B 4497   3.492   4.754   5.592 -0.9277 -1.7999 -0.8185
   45CHL1   C24 4498   3.323   4.654   5.507  0.0142  0.0939 -0.4213
   45CHL1  H24A 4499   3.325   4.576   5.586 -1.5296  1.8127  1.4178
   45CHL1  H24B 4500   3.221   4.698   5.496 -0.3341 -0.8831 -1.2793
   45CHL1   C25 4501   3.400   4.615   5.376  0.2840  0.0487 -0.1323
   45CHL1   H25 4502   3.499   4.572   5.403 -0.8468 -2.3356  0.5196
   45CHL1   C26 4503   3.343   4.490   5.313  0.3297 -0.3852 -0.3206
   45CHL1  H26A 4504   3.246   4.513   5.262  0.9040  1.2738 -0.7324
   45CHL1  H26B 4505   3.408   4.444   5.236 -1.2415 -0.0873 -1.9002
   45CHL1  H26C 4506   3.324   4.410   5.388 -0.9261 -2.3590 -2.6168
   45CHL1   C27 4507   3.407   4.731   5.281  0.5458  0.1870  1.2299
   45CHL1  H27A 4508   3.437   4.692   5.181 -2.1100 -0.9603  0.7878
   45CHL1  H27B 4509   3.302   4.760   5.257  0.6040  0.8344  1.7353
   45CHL1  H27C 4510   3.466   4.819   5.311 -0.9800  1.6163  0.2325
   46CHL1    C3 4511   4.060   1.589   6.647 -0.1012  0.6320 -0.4617
   46CHL1    H3 4512   4.020   1.693   6.651 -3.1439 -0.3614 -2.1160
   46CHL1    O3 4513   4.108   1.536   6.768 -0.1126 -0.3389 -0.3048
   46CHL1   H3' 4514   4.178   1.592   6.802 -0.0341  0.3484 -1.5384
   46CHL1    C4 4515   3.945   1.500   6.601 -0.2811 -0.4998  0.2356
   46CHL1   H4A 4516   3.970   1.391   6.602  0.2532 -0.3774  0.4868
   46CHL1   H4B 4517   3.866   1.512   6.679 -0.2813 -2.7553  0.6644
   46CHL1    C5 4518   3.888   1.520   6.457  0.1602  0.0213 -0.1701
   46CHL1    C6 4519   3.755   1.525   6.449  0.0970  0.0682 -0.4642
   46CHL1    H6 4520   3.696   1.530   6.542  0.7331 -0.0923 -0.0488
   46CHL1    C7 4521   3.677   1.546   6.322  0.2504  0.3094  0.9192
   46CHL1   H7A 4522   3.589   1.482   6.302 -1.0588  2.1664  0.4470
   46CHL1   H7B 4523   3.640   1.651   6.327  0.3398  0.4474 -0.6632
   46CHL1    C8 4524   3.780   1.543   6.202 -0.0626  0.3566  0.0459
   46CHL1    H8 4525   3.808   1.438   6.176  2.7830  0.2576  2.9228
   46CHL1   C14 4526   3.724   1.605   6.079 -1.0203 -0.3336  0.2668
   46CHL1   H14 4527   3.719   1.715   6.097 -0.5658  0.1752 -2.2941
   46CHL1   C15 4528   3.576   1.570   6.055 -0.3073  0.1813 -0.0826
   46CHL1  H15A 4529   3.544   1.464   6.065 -2.0596  0.3143 -2.9075
   46CHL1  H15B 4530   3.500   1.636   6.103 -3.4309 -1.1759 -2.7372
   46CHL1   C16 4531   3.557   1.596   5.900 -0.2474  0.1752 -0.4488
   46CHL1  H16A 4532   3.548   1.501   5.843  0.5014  0.7275 -1.5173
   46CHL1  H16B 4533   3.469   1.657   5.871 -0.2763  0.3071 -0.0754
   46CHL1   C17 4534   3.694   1.655   5.855  0.0458  0.0521 -0.2399
   46CHL1   H17 4535   3.699   1.761   5.886 -0.1325 -0.0511  0.1395
   46CHL1   C13 4536   3.798   1.584   5.947 -0.2243 -0.9832 -0.2967
   46CHL1   C18 4537   3.810   1.433   5.906  0.0419  0.1790 -0.8938
   46CHL1  H18A 4538   3.716   1.377   5.922  0.7029 -0.0865  3.0531
   46CHL1  H18B 4539   3.854   1.419   5.804 -1.5239 -1.1210 -1.4325
   46CHL1  H18C 4540   3.870   1.371   5.975 -2.7823  0.5878  2.1302
   46CHL1   C12 4541   3.935   1.654   5.968  0.1341  0.4793 -0.1584
   46CHL1  H12A 4542   4.006   1.640   5.883 -2.5605 -3.2491 -2.1152
   46CHL1  H12B 4543   3.914   1.763   5.975  0.0201  0.4081  0.6358
   46CHL1   C11 4544   4.010   1.612   6.098  0.8972 -0.2377 -0.3623
   46CHL1  H11A 4545   4.039   1.508   6.074  0.0373 -0.5885  0.0360
   46CHL1  H11B 4546   4.094   1.682   6.113  0.4782  0.1611  0.2054
   46CHL1    C9 4547   3.924   1.609   6.226  0.4462 -0.1223 -0.2493
   46CHL1    H9 4548   3.907   1.712   6.266  0.5856  0.4463 -1.6031
   46CHL1   C10 4549   3.991   1.541   6.348 -0.1346 -0.4978  0.1962
   46CHL1   C19 4550   4.044   1.402   6.317  0.0844  0.5330  0.0323
   46CHL1  H19A 4551   4.124   1.404   6.240  1.9948 -1.1352  1.8797
   46CHL1  H19B 4552   4.073   1.342   6.406  0.0821 -1.0347 -0.9928
   46CHL1  H19C 4553   3.972   1.346   6.254  2.1306 -0.4666 -1.5181
   46CHL1    C1 4554   4.102   1.632   6.402  0.0824 -0.2650 -0.3942
   46CHL1   H1A 4555   4.180   1.628   6.323 -0.4525  0.2409 -0.9640
   46CHL1   H1B 4556   4.070   1.736   6.422 -0.8504 -0.5534 -0.3380
   46CHL1    C2 4557   4.171   1.582   6.539 -0.0719  0.1974  0.3892
   46CHL1   H2A 4558   4.255   1.651   6.561 -0.4991  1.4740 -1.7022
   46CHL1   H2B 4559   4.202   1.478   6.516 -1.9460 -0.1229 -0.8595
   46CHL1   C20 4560   3.722   1.653   5.701  0.2526 -0.0534  0.7191
   46CHL1   H20 4561   3.711   1.546   5.675 -1.4082 -0.0964  1.4786
   46CHL1   C21 4562   3.860   1.706   5.659 -0.6094  0.6630 -0.3818
   46CHL1  H21A 4563   3.942   1.634   5.680  0.3230  1.8775  0.3373
   46CHL1  H21B 4564   3.887   1.799   5.714  0.1235 -0.5542  1.3854
   46CHL1  H21C 4565   3.858   1.736   5.552  0.4179  1.7165 -0.1266
   46CHL1   C22 4566   3.600   1.722   5.633  0.3792  0.0514 -0.1417
   46CHL1  H22A 4567   3.518   1.648   5.647  1.1076 -1.2191 -2.1663
   46CHL1  H22B 4568   3.569   1.822   5.669 -0.6029 -0.7495  1.3389
   46CHL1   C23 4569   3.607   1.731   5.479 -0.2749  0.0493  0.0840
   46CHL1  H23A 4570   3.507   1.773   5.453  0.3871  2.7857  1.6525
   46CHL1  H23B 4571   3.686   1.797   5.439 -0.1109 -2.4162 -4.2935
   46CHL1   C24 4572   3.606   1.590   5.408 -0.0281 -0.0527 -0.3600
   46CHL1  H24A 4573   3.707   1.546   5.421 -0.2666 -0.5768 -0.2852
   46CHL1  H24B 4574   3.538   1.519   5.458  0.0936 -0.8904 -1.3570
   46CHL1   C25 4575   3.595   1.590   5.252  0.2747 -0.2467 -0.0467
   46CHL1   H25 4576   3.608   1.489   5.208  3.6370  0.5394 -1.2050
   46CHL1   C26 4577   3.453   1.632   5.213  0.3017  0.1049 -0.0991
   46CHL1  H26A 4578   3.439   1.742   5.208 -1.1021 -0.0998 -2.3776
   46CHL1  H26B 4579   3.446   1.594   5.108 -0.6498 -1.7652  0.5922
   46CHL1  H26C 4580   3.380   1.576   5.276  1.8465 -1.3209  0.4710
   46CHL1   C27 4581   3.704   1.674   5.183 -0.1896  0.1625 -0.2195
   46CHL1  H27A 4582   3.695   1.677   5.072  0.5932  2.3827 -0.2543
   46CHL1  H27B 4583   3.675   1.777   5.213 -1.9529  0.5188 -2.7706
   46CHL1  H27C 4584   3.809   1.647   5.207 -0.2672  0.4009  0.3890
   47CHL1    C3 4585   6.424   5.987   6.847 -0.2127  0.6944 -0.5581
   47CHL1    H3 4586   6.403   6.091   6.815 -0.8695  0.5419 -0.6376
   47CHL1    O3 4587   6.479   5.993   6.981 -0.1840  0.5905 -0.1634
   47CHL1   H3' 4588   6.567   5.955   6.984 -0.7826 -0.8155  2.0183
   47CHL1    C4 4589   6.300   5.900   6.842  0.1398  0.9825  0.4786
   47CHL1   H4A 4590   6.330   5.801   6.883 -0.2490  0.8041  0.3368
   47CHL1   H4B 4591   6.219   5.934   6.910  1.5694  3.6932  0.9534
   47CHL1    C5 4592   6.246   5.895   6.700 -0.7882  0.2431 -0.2688
   47CHL1    C6 4593   6.127   5.953   6.671  0.6450  1.1639 -0.0656
   47CHL1    H6 4594   6.064   5.985   6.755  0.3942 -2.0643  1.1091
   47CHL1    C7 4595   6.074   5.959   6.529 -0.1908 -0.2450  0.4635
   47CHL1   H7A 4596   5.964   5.939   6.530 -0.2145 -1.4597 -3.8043
   47CHL1   H7B 4597   6.094   6.058   6.483 -1.0640 -0.0430  0.4971
   47CHL1    C8 4598   6.140   5.848   6.438 -0.0110 -0.1599  0.0831
   47CHL1    H8 4599   6.112   5.746   6.475 -0.3111  0.2595  1.0379
   47CHL1   C14 4600   6.096   5.878   6.296 -0.2655  0.0044  0.4980
   47CHL1   H14 4601   6.141   5.974   6.264  0.4708 -0.6184 -0.3539
   47CHL1   C15 4602   5.948   5.883   6.267  0.5744  0.0707 -0.3043
   47CHL1  H15A 4603   5.903   5.789   6.304 -0.0835  1.1304  1.7758
   47CHL1  H15B 4604   5.898   5.975   6.305  0.6739 -0.2122  0.5308
   47CHL1   C16 4605   5.941   5.884   6.113 -0.4323  0.0204 -0.2386
   47CHL1  H16A 4606   5.875   5.804   6.073  0.8288 -1.0383 -0.2526
   47CHL1  H16B 4607   5.919   5.983   6.066  2.2858  0.7490 -0.1105
   47CHL1   C17 4608   6.086   5.847   6.066 -0.4076 -0.0703 -0.1262
   47CHL1   H17 4609   6.129   5.946   6.039 -1.4347  0.4886  0.2564
   47CHL1   C13 4610   6.161   5.788   6.189 -0.1748 -0.5410 -0.0135
   47CHL1   C18 4611   6.128   5.635   6.210 -0.2116 -0.6320 -0.3969
   47CHL1  H18A 4612   6.182   5.574   6.134  0.6858 -3.8654  2.5566
   47CHL1  H18B 4613   6.178   5.598   6.302  1.5273  2.5353  0.0708
   47CHL1  H18C 4614   6.020   5.611   6.213 -0.8866  1.9579 -1.2740
   47CHL1   C12 4615   6.315   5.796   6.204  0.1960 -0.6437 -0.0081
   47CHL1  H12A 4616   6.361   5.734   6.125  0.8421  0.0145 -0.1587
   47CHL1  H12B 4617   6.349   5.901   6.187 -1.5814  0.1427  0.9329
   47CHL1   C11 4618   6.369   5.765   6.347  0.0960 -0.1792  0.3674
   47CHL1  H11A 4619   6.365   5.657   6.371  2.2986 -0.7017 -1.2665
   47CHL1  H11B 4620   6.477   5.792   6.350  0.4072 -0.5511 -3.2619
   47CHL1    C9 4621   6.297   5.848   6.454 -0.2466 -0.3018 -0.4945
   47CHL1    H9 4622   6.314   5.954   6.428  0.2906 -0.2273  0.1491
   47CHL1   C10 4623   6.350   5.835   6.601 -0.0808  0.1688 -0.6224
   47CHL1   C19 4624   6.362   5.684   6.633 -0.7292  0.0236  1.1631
   47CHL1  H19A 4625   6.264   5.634   6.619 -0.6868  0.3439 -0.5613
   47CHL1  H19B 4626   6.437   5.643   6.562 -0.6226  1.6512  0.2757
   47CHL1  H19C 4627   6.398   5.659   6.735 -1.7695  1.1220  1.8224
   47CHL1    C1 4628   6.489   5.906   6.608  0.0690  0.3357  0.2775
   47CHL1   H1A 4629   6.562   5.854   6.543  0.5244  0.8291  0.3873
   47CHL1   H1B 4630   6.469   6.009   6.569  0.3649  1.1296  2.1052
   47CHL1    C2 4631   6.539   5.926   6.751  1.6170 -0.4314  0.5251
   47CHL1   H2A 4632   6.623   5.998   6.755  1.5150 -0.3435  1.9088
   47CHL1   H2B 4633   6.577   5.828   6.787  3.1045 -0.2961 -0.6106
   47CHL1   C20 4634   6.089   5.760   5.934  0.2898 -0.5210 -0.4038
   47CHL1   H20 4635   6.056   5.657   5.959  0.2141  0.0881  2.2585
   47CHL1   C21 4636   6.232   5.756   5.874  0.9147  0.1055 -0.0180
   47CHL1  H21A 4637   6.264   5.862   5.868 -2.5846  1.2361 -1.2539
   47CHL1  H21B 4638   6.234   5.708   5.773  2.3749 -0.4764  0.2605
   47CHL1  H21C 4639   6.305   5.701   5.936  0.9106 -0.2479 -0.3218
   47CHL1   C22 4640   6.001   5.814   5.817  0.2850  0.0522  0.3663
   47CHL1  H22A 4641   6.009   5.739   5.736 -1.1915 -0.2718  0.4819
   47CHL1  H22B 4642   5.897   5.812   5.856  1.0745 -3.1080  2.7028
   47CHL1   C23 4643   6.024   5.960   5.767  0.1081 -0.2194  0.0587
   47CHL1  H23A 4644   6.016   6.024   5.858 -0.5679  1.0301 -0.8512
   47CHL1  H23B 4645   6.130   5.967   5.736  0.1835 -0.5624  0.2307
   47CHL1   C24 4646   5.931   5.992   5.646 -0.8358 -0.4312 -0.7275
   47CHL1  H24A 4647   5.947   5.906   5.577 -0.2862 -1.0602  0.1485
   47CHL1  H24B 4648   5.829   5.994   5.690 -1.5840 -2.4354 -2.2291
   47CHL1   C25 4649   5.958   6.129   5.587 -0.3020 -0.2571  0.7115
   47CHL1   H25 4650   6.068   6.147   5.585 -0.3387  0.0847 -1.2340
   47CHL1   C26 4651   5.913   6.127   5.434  0.1120 -0.6148 -0.4490
   47CHL1  H26A 4652   5.810   6.086   5.425 -0.1703 -0.2710  1.0784
   47CHL1  H26B 4653   5.925   6.229   5.390  0.2072 -0.2066  0.5049
   47CHL1  H26C 4654   5.974   6.049   5.383 -0.9717 -0.9857 -1.2207
   47CHL1   C27 4655   5.883   6.241   5.654  0.3479  0.1083  0.7093
   47CHL1  H27A 4656   5.910   6.234   5.762 -2.8068 -1.4004  1.5240
   47CHL1  H27B 4657   5.908   6.342   5.615  0.8229 -0.3390 -0.1813
   47CHL1  H27C 4658   5.776   6.219   5.670  0.4803  0.2549  1.9353
   48CHL1    C3 4659   1.787   6.382   6.742 -0.3655 -0.3948 -0.3405
   48CHL1    H3 4660   1.896   6.369   6.726  0.4430  0.5053  3.5205
   48CHL1    O3 4661   1.770   6.415   6.877 -0.1077 -0.4852  0.1374
   48CHL1   H3' 4662   1.822   6.496   6.882  0.4448 -0.7258 -1.2697
   48CHL1    C4 4663   1.741   6.508   6.657 -0.8547 -0.1699 -0.2215
   48CHL1   H4A 4664   1.636   6.519   6.693 -0.3175  1.4580  0.9817
   48CHL1   H4B 4665   1.793   6.598   6.696  1.7317 -1.9701  0.7816
   48CHL1    C5 4666   1.752   6.493   6.508  0.4912  1.3378  0.4269
   48CHL1    C6 4667   1.804   6.582   6.428  0.5642 -0.2674 -0.2245
   48CHL1    H6 4668   1.840   6.675   6.475  2.7740 -1.2668  0.2130
   48CHL1    C7 4669   1.801   6.583   6.279 -0.1045 -0.0092 -0.0430
   48CHL1   H7A 4670   1.762   6.675   6.231 -1.9958 -0.0794  1.2312
   48CHL1   H7B 4671   1.902   6.558   6.242  0.2234  0.3205  0.6217
   48CHL1    C8 4672   1.706   6.468   6.226  0.0219  0.6113 -0.3555
   48CHL1    H8 4673   1.604   6.512   6.232 -0.1458  0.4453 -1.7173
   48CHL1   C14 4674   1.737   6.451   6.079 -0.5053  0.3594  0.1427
   48CHL1   H14 4675   1.843   6.420   6.069 -0.4286  1.5198 -4.4935
   48CHL1   C15 4676   1.724   6.564   5.978 -0.6889  0.9222 -0.3885
   48CHL1  H15A 4677   1.622   6.608   5.987  0.0539  2.4369  1.1555
   48CHL1  H15B 4678   1.791   6.651   5.994  0.6750  0.4606 -2.9730
   48CHL1   C16 4679   1.732   6.489   5.836 -0.4130  0.0494  0.6242
   48CHL1  H16A 4680   1.646   6.530   5.780  0.2710 -0.0055 -0.4906
   48CHL1  H16B 4681   1.825   6.506   5.778 -1.9403 -1.2225 -2.4312
   48CHL1   C17 4682   1.711   6.340   5.865  0.2516  0.6341  0.5392
   48CHL1   H17 4683   1.813   6.295   5.871  0.0591  0.3444  1.7317
   48CHL1   C13 4684   1.665   6.335   6.011 -0.2728  0.0504 -0.0241
   48CHL1   C18 4685   1.510   6.371   6.003 -0.2067  0.2109  0.2411
   48CHL1  H18A 4686   1.490   6.455   5.934 -0.7887  0.6495  0.9215
   48CHL1  H18B 4687   1.458   6.278   5.971 -2.5172  1.4983  0.0885
   48CHL1  H18C 4688   1.472   6.411   6.100  1.9870  3.8107 -0.2279
   48CHL1   C12 4689   1.679   6.210   6.094 -0.9167  0.8767  0.5296
   48CHL1  H12A 4690   1.627   6.125   6.044  1.9810 -0.4979 -0.3526
   48CHL1  H12B 4691   1.785   6.178   6.092 -1.5874 -1.8155 -2.8699
   48CHL1   C11 4692   1.639   6.223   6.236  0.4727 -0.4936 -0.3236
   48CHL1  H11A 4693   1.529   6.235   6.229 -0.2665 -4.3785  1.5386
   48CHL1  H11B 4694   1.649   6.127   6.291 -0.4924  0.1607  1.0504
   48CHL1    C9 4695   1.716   6.334   6.310  0.2881  0.2117 -0.0961
   48CHL1    H9 4696   1.826   6.316   6.314  0.3965  1.0278  1.4381
   48CHL1   C10 4697   1.683   6.367   6.456  0.3008 -0.1095 -0.2385
   48CHL1   C19 4698   1.529   6.383   6.475  0.4613  0.0603 -0.7781
   48CHL1  H19A 4699   1.482   6.290   6.437  0.2218 -0.9835  1.8437
   48CHL1  H19B 4700   1.498   6.400   6.580 -0.6370  1.6355 -1.3180
   48CHL1  H19C 4701   1.496   6.469   6.412  0.2082 -0.5204 -1.4536
   48CHL1    C1 4702   1.726   6.242   6.541 -0.1511  0.7156  0.3440
   48CHL1   H1A 4703   1.665   6.155   6.510 -0.9309  2.1445 -2.4629
   48CHL1   H1B 4704   1.834   6.220   6.524  0.0492  1.4863  0.5716
   48CHL1    C2 4705   1.702   6.259   6.693  0.1139  0.3332 -0.2715
   48CHL1   H2A 4706   1.727   6.173   6.759 -2.2758 -1.5340 -1.6227
   48CHL1   H2B 4707   1.598   6.291   6.713 -0.2713 -0.9544 -0.0996
   48CHL1   C20 4708   1.637   6.268   5.750 -0.1509  0.4309 -1.0105
   48CHL1   H20 4709   1.545   6.325   5.725 -0.8156 -1.4771 -3.4350
   48CHL1   C21 4710   1.599   6.119   5.789  0.2267 -0.2402  0.4544
   48CHL1  H21A 4711   1.529   6.102   5.874 -1.5179 -2.1596 -1.2426
   48CHL1  H21B 4712   1.567   6.063   5.698 -0.4876  1.3585 -0.3105
   48CHL1  H21C 4713   1.692   6.070   5.824  0.6528 -0.1685 -0.5484
   48CHL1   C22 4714   1.731   6.266   5.617  0.5145  0.0893  0.5392
   48CHL1  H22A 4715   1.838   6.268   5.649  0.3890 -2.4140  1.3257
   48CHL1  H22B 4716   1.714   6.169   5.564 -0.8197 -0.0524  1.1789
   48CHL1   C23 4717   1.717   6.382   5.520  0.0980 -0.0998 -0.0255
   48CHL1  H23A 4718   1.615   6.379   5.475  0.7339  0.9019 -1.6186
   48CHL1  H23B 4719   1.718   6.474   5.583  1.1172 -1.0401  1.4006
   48CHL1   C24 4720   1.817   6.381   5.402 -0.1981  0.1116 -0.4158
   48CHL1  H24A 4721   1.914   6.404   5.451  0.9275 -0.7860 -2.1442
   48CHL1  H24B 4722   1.829   6.280   5.358  0.0946 -0.0799  0.0919
   48CHL1   C25 4723   1.789   6.490   5.296 -0.2679  0.4011 -0.0223
   48CHL1   H25 4724   1.685   6.484   5.259 -0.6825  1.5883  0.8857
   48CHL1   C26 4725   1.817   6.625   5.363 -0.2775 -0.5851  0.8772
   48CHL1  H26A 4726   1.917   6.614   5.409  0.5984  4.2738  0.7032
   48CHL1  H26B 4727   1.831   6.700   5.283  0.4886 -0.3227  1.2538
   48CHL1  H26C 4728   1.756   6.662   5.449 -0.8089 -1.9607  1.1113
   48CHL1   C27 4729   1.889   6.472   5.177  0.5540  0.1538  0.2682
   48CHL1  H27A 4730   1.994   6.482   5.212  0.8636 -0.8613 -0.3593
   48CHL1  H27B 4731   1.868   6.372   5.135  0.3226 -0.2445  1.2821
   48CHL1  H27C 4732   1.870   6.551   5.101  0.6583 -0.2352 -0.1651
   49CHL1    C3 4733   0.136   5.945   3.582 -0.0314  0.9635  0.5523
   49CHL1    H3 4734   0.207   6.030   3.576  1.0626  0.0317 -0.1584
   49CHL1    O3 4735   0.115   5.894   3.452  0.0899  1.1673  0.3514
   49CHL1   H3' 4736   0.056   5.820   3.471 -0.0591  1.0519 -0.5101
   49CHL1    C4 4737   0.204   5.834   3.670 -0.8454  0.0865  0.5979
   49CHL1   H4A 4738   0.135   5.749   3.649 -1.9404  0.6679  1.7079
   49CHL1   H4B 4739   0.303   5.803   3.631 -1.5439  0.8113 -1.9003
   49CHL1    C5 4740   0.204   5.866   3.818  0.3734  0.5911 -0.1222
   49CHL1    C6 4741   0.315   5.859   3.880 -0.1821 -0.3736  0.1929
   49CHL1    H6 4742   0.401   5.834   3.815 -2.2515 -1.4571 -2.3043
   49CHL1    C7 4743   0.324   5.897   4.024  0.3334 -0.0579  0.5687
   49CHL1   H7A 4744   0.407   5.860   4.089 -0.7827 -1.8842  1.0096
   49CHL1   H7B 4745   0.339   6.007   4.031  2.3615 -0.1414 -1.2735
   49CHL1    C8 4746   0.187   5.876   4.090  0.1583  0.4459  0.1327
   49CHL1    H8 4747   0.191   5.765   4.078  1.1334  0.6641 -1.9254
   49CHL1   C14 4748   0.194   5.911   4.236  0.2071  0.0923 -0.4740
   49CHL1   H14 4749   0.220   6.019   4.239  2.9221 -0.5084  0.9461
   49CHL1   C15 4750   0.296   5.838   4.328  0.3924  0.3959 -0.8991
   49CHL1  H15A 4751   0.289   5.728   4.313  2.1101 -0.2094  1.8994
   49CHL1  H15B 4752   0.397   5.875   4.301 -0.0192  1.7929 -0.5730
   49CHL1   C16 4753   0.246   5.872   4.469 -0.5083 -0.5646 -0.2986
   49CHL1  H16A 4754   0.258   5.778   4.528  2.0862 -1.4453 -2.0726
   49CHL1  H16B 4755   0.306   5.944   4.528 -0.3451 -0.9471  0.0064
   49CHL1   C17 4756   0.097   5.923   4.456 -0.1602  0.1784  0.1562
   49CHL1   H17 4757   0.102   6.034   4.455  0.7159  0.2706 -3.8517
   49CHL1   C13 4758   0.060   5.886   4.307 -0.0686  0.3110  0.0032
   49CHL1   C18 4759   0.014   5.746   4.304  0.0485  0.3335  0.1391
   49CHL1  H18A 4760   0.086   5.671   4.345  0.4309 -0.2793 -1.5843
   49CHL1  H18B 4761  -0.081   5.735   4.360 -0.3799 -0.8750 -0.7971
   49CHL1  H18C 4762  -0.016   5.726   4.199 -1.1691  1.7537  0.1907
   49CHL1   C12 4763  -0.039   5.988   4.245  0.4746 -0.0762 -0.4134
   49CHL1  H12A 4764  -0.144   5.972   4.277 -0.2528  2.8441 -1.0281
   49CHL1  H12B 4765  -0.015   6.094   4.270 -1.5388  0.2965  0.1311
   49CHL1   C11 4766  -0.053   5.959   4.091 -0.0949 -0.0983 -1.0111
   49CHL1  H11A 4767  -0.117   5.869   4.083  0.4821 -0.7652  1.1235
   49CHL1  H11B 4768  -0.117   6.040   4.049 -1.7067 -0.9991 -0.3756
   49CHL1    C9 4769   0.080   5.952   4.015  0.6341  0.2614  0.7049
   49CHL1    H9 4770   0.107   6.060   4.012  0.0845  0.3948  0.5201
   49CHL1   C10 4771   0.062   5.903   3.876  0.1350 -0.4747  0.0923
   49CHL1   C19 4772  -0.027   5.780   3.863  0.0923 -0.0850 -0.5460
   49CHL1  H19A 4773   0.001   5.700   3.934 -3.2423 -0.5776  0.4031
   49CHL1  H19B 4774  -0.134   5.799   3.889  0.0102 -1.9732  0.7423
   49CHL1  H19C 4775  -0.022   5.730   3.764  1.2272 -0.7317 -0.1817
   49CHL1    C1 4776   0.012   6.023   3.783 -0.3773 -0.5670  0.4367
   49CHL1   H1A 4777  -0.088   6.062   3.811  0.0247  0.6677  0.1927
   49CHL1   H1B 4778   0.086   6.105   3.797  0.1948 -1.3013  2.0004
   49CHL1    C2 4779  -0.006   5.991   3.628 -0.2376  0.5392 -0.4857
   49CHL1   H2A 4780  -0.029   6.082   3.568 -1.0035  1.0748  0.5708
   49CHL1   H2B 4781  -0.084   5.912   3.623  0.1244  0.1827 -0.5909
   49CHL1   C20 4782   0.011   5.884   4.574 -0.4288  0.2407 -0.5041
   49CHL1   H20 4783  -0.008   5.775   4.559 -0.8263 -0.1729  2.3666
   49CHL1   C21 4784  -0.137   5.943   4.570 -0.5805 -0.0398  0.4834
   49CHL1  H21A 4785  -0.187   5.904   4.478  0.3717  1.6773 -0.8179
   49CHL1  H21B 4786  -0.130   6.053   4.579  0.9207 -0.1698  1.0464
   49CHL1  H21C 4787  -0.185   5.894   4.657  0.2871 -1.3883  0.2327
   49CHL1   C22 4788   0.067   5.897   4.714  0.1979 -0.4792 -1.0501
   49CHL1  H22A 4789  -0.004   5.861   4.791 -0.3096  1.6557 -0.4474
   49CHL1  H22B 4790   0.159   5.840   4.742 -0.3813 -0.4738  1.0535
   49CHL1   C23 4791   0.096   6.052   4.742  0.2533  0.7191 -0.4996
   49CHL1  H23A 4792   0.163   6.099   4.668  1.5142 -0.6886 -0.3020
   49CHL1  H23B 4793  -0.004   6.100   4.750  0.5210  1.3941 -1.1341
   49CHL1   C24 4794   0.168   6.078   4.876  0.3117  1.0063 -0.3168
   49CHL1  H24A 4795   0.131   6.002   4.948 -1.1850  0.8564 -1.1989
   49CHL1  H24B 4796   0.275   6.055   4.856  1.1154  1.2270  3.1033
   49CHL1   C25 4797   0.157   6.217   4.939  0.0125 -0.2387 -0.2236
   49CHL1   H25 4798   0.050   6.213   4.965 -0.8310  1.8131 -2.8747
   49CHL1   C26 4799   0.238   6.231   5.066  0.5087 -0.3502 -0.5557
   49CHL1  H26A 4800   0.344   6.240   5.037 -0.0416  2.8190 -1.9774
   49CHL1  H26B 4801   0.218   6.327   5.119  1.9949  0.5462 -1.5437
   49CHL1  H26C 4802   0.218   6.158   5.148  2.1558 -0.5700 -0.3221
   49CHL1   C27 4803   0.196   6.323   4.837 -0.2071 -0.1735 -0.2284
   49CHL1  H27A 4804   0.191   6.426   4.878  0.4348  0.9887 -2.8375
   49CHL1  H27B 4805   0.301   6.303   4.806  0.1947 -1.5060  1.8137
   49CHL1  H27C 4806   0.122   6.324   4.754 -1.6917  0.0977  1.0556
   50CHL1    C3 4807   6.664   3.041   3.089  0.5106 -0.6349 -0.5157
   50CHL1    H3 4808   6.755   3.097   3.120  0.6852 -1.4187  0.4508
   50CHL1    O3 4809   6.684   3.001   2.959  0.4911 -0.5300 -0.1467
   50CHL1   H3' 4810   6.621   2.930   2.946  0.9578 -0.9188 -0.3344
   50CHL1    C4 4811   6.642   2.933   3.187 -0.6670 -0.1348 -0.2901
   50CHL1   H4A 4812   6.555   2.869   3.163 -1.6468  0.9700  0.2735
   50CHL1   H4B 4813   6.733   2.870   3.174 -1.7943 -1.4753 -2.3323
   50CHL1    C5 4814   6.617   2.970   3.327  0.2745  0.5632 -0.5228
   50CHL1    C6 4815   6.702   2.927   3.423  0.0717  0.1141 -0.7347
   50CHL1    H6 4816   6.779   2.851   3.402  0.1298  0.1314 -0.5888
   50CHL1    C7 4817   6.688   2.960   3.568 -0.6050 -0.4694 -0.8104
   50CHL1   H7A 4818   6.694   2.867   3.629 -0.2562 -1.2740 -2.0243
   50CHL1   H7B 4819   6.767   3.032   3.597 -2.4895  0.6744  1.8627
   50CHL1    C8 4820   6.555   3.042   3.600 -0.0124  0.4221  0.2412
   50CHL1    H8 4821   6.469   2.972   3.604  0.2827 -0.0473 -0.9238
   50CHL1   C14 4822   6.565   3.111   3.732 -0.0917 -0.0720  0.2336
   50CHL1   H14 4823   6.636   3.195   3.716 -0.7650  0.5839  0.6514
   50CHL1   C15 4824   6.616   3.034   3.859 -0.0243 -0.2773  0.8166
   50CHL1  H15A 4825   6.594   2.925   3.854  2.1033 -0.7382  0.5481
   50CHL1  H15B 4826   6.725   3.056   3.863 -0.6165  5.4686 -2.3382
   50CHL1   C16 4827   6.546   3.095   3.976  0.1578  0.2276  0.8043
   50CHL1  H16A 4828   6.468   3.023   4.008 -0.1064  1.1512  2.3382
   50CHL1  H16B 4829   6.603   3.116   4.069  0.6136  1.0265  0.3552
   50CHL1   C17 4830   6.468   3.219   3.914  0.7553 -0.4872  0.0970
   50CHL1   H17 4831   6.545   3.297   3.899  0.9404 -0.8843 -1.1106
   50CHL1   C13 4832   6.435   3.190   3.771  0.1646 -0.3764 -0.4193
   50CHL1   C18 4833   6.314   3.098   3.777  0.9322  1.1781  0.2697
   50CHL1  H18A 4834   6.330   3.009   3.841  0.3768  1.4254  0.7655
   50CHL1  H18B 4835   6.222   3.147   3.817  0.5967  0.9086 -0.1519
   50CHL1  H18C 4836   6.269   3.067   3.680  1.6277 -0.3592  0.4228
   50CHL1   C12 4837   6.423   3.302   3.670 -0.1901  1.0413  0.4698
   50CHL1  H12A 4838   6.338   3.366   3.701 -0.2604  1.2529 -0.1521
   50CHL1  H12B 4839   6.511   3.369   3.675  0.8654 -0.2900  0.2994
   50CHL1   C11 4840   6.403   3.240   3.526 -0.5293 -0.1923 -0.3425
   50CHL1  H11A 4841   6.298   3.202   3.523 -1.5767  2.2189  1.9671
   50CHL1  H11B 4842   6.412   3.318   3.447  2.7672 -1.9904 -1.9424
   50CHL1    C9 4843   6.517   3.134   3.490 -0.3496 -1.0219  0.2031
   50CHL1    H9 4844   6.613   3.190   3.484 -0.6216 -0.6508 -1.0781
   50CHL1   C10 4845   6.503   3.073   3.347  0.7746  0.3813 -0.3317
   50CHL1   C19 4846   6.362   3.017   3.323  0.6536 -0.3682 -0.4067
   50CHL1  H19A 4847   6.287   3.098   3.334  0.2349 -0.8145  0.0942
   50CHL1  H19B 4848   6.347   2.985   3.217  1.0570  1.8971 -1.2005
   50CHL1  H19C 4849   6.345   2.936   3.397 -1.3973  0.6347  0.3039
   50CHL1    C1 4850   6.522   3.185   3.231  0.4450 -0.3825  0.0734
   50CHL1   H1A 4851   6.429   3.246   3.240  0.3109 -0.6963  0.9508
   50CHL1   H1B 4852   6.609   3.242   3.269  0.5800 -1.7524  1.9736
   50CHL1    C2 4853   6.544   3.131   3.089 -0.8114 -0.0412 -0.4087
   50CHL1   H2A 4854   6.577   3.217   3.025 -0.1028  1.1367  1.4594
   50CHL1   H2B 4855   6.456   3.073   3.055 -1.0901 -0.2515  0.6542
   50CHL1   C20 4856   6.349   3.274   4.003 -0.4821  0.0178 -0.2296
   50CHL1   H20 4857   6.261   3.208   3.983 -0.8288  0.8407 -1.5866
   50CHL1   C21 4858   6.333   3.421   3.963 -0.3938 -0.2187 -0.4892
   50CHL1  H21A 4859   6.255   3.465   4.028  0.5850 -0.6568  1.0405
   50CHL1  H21B 4860   6.298   3.458   3.865 -1.6717  2.3366  0.8394
   50CHL1  H21C 4861   6.433   3.465   3.982  0.9496 -2.4383 -1.9831
   50CHL1   C22 4862   6.374   3.259   4.153  0.3447 -0.6764  0.1448
   50CHL1  H22A 4863   6.289   3.303   4.210  0.5848  1.1885 -0.8581
   50CHL1  H22B 4864   6.382   3.152   4.181  0.0645 -1.2230 -1.7150
   50CHL1   C23 4865   6.500   3.332   4.191  0.2100  0.3929 -0.5490
   50CHL1  H23A 4866   6.593   3.321   4.132  0.8157 -0.8719  0.5902
   50CHL1  H23B 4867   6.470   3.439   4.182 -0.1375  0.2599 -0.9963
   50CHL1   C24 4868   6.549   3.319   4.341  0.4404  0.1851 -0.4462
   50CHL1  H24A 4869   6.604   3.224   4.351  0.8072  0.4754  0.3535
   50CHL1  H24B 4870   6.613   3.408   4.359  1.0835  0.0082 -1.7163
   50CHL1   C25 4871   6.453   3.330   4.456  1.0391  0.2974  0.1780
   50CHL1   H25 4872   6.388   3.240   4.444 -1.0456  1.9890 -2.1826
   50CHL1   C26 4873   6.526   3.337   4.587  0.4451  0.2637  0.1846
   50CHL1  H26A 4874   6.449   3.329   4.667 -0.9869 -2.2583 -1.3211
   50CHL1  H26B 4875   6.589   3.246   4.595  1.1415  0.5971 -1.1093
   50CHL1  H26C 4876   6.588   3.429   4.597  1.1999  0.3323 -3.4921
   50CHL1   C27 4877   6.356   3.448   4.450  0.1014 -0.1896 -0.7305
   50CHL1  H27A 4878   6.421   3.538   4.448  1.9388 -1.4868 -1.5384
   50CHL1  H27B 4879   6.292   3.440   4.359 -0.4052 -1.4592 -0.2953
   50CHL1  H27C 4880   6.276   3.459   4.527  0.3331  0.0747 -0.5279
   51CHL1    C3 4881   6.332   4.730   3.170  0.3384  0.1611 -0.1883
   51CHL1    H3 4882   6.242   4.795   3.184  0.6822  0.6859 -0.3745
   51CHL1    O3 4883   6.349   4.704   3.030 -0.2423 -0.3166 -0.5068
   51CHL1   H3' 4884   6.433   4.659   3.016 -0.5270 -0.2807 -2.6482
   51CHL1    C4 4885   6.447   4.809   3.232  0.5786 -0.0504  0.1454
   51CHL1   H4A 4886   6.540   4.754   3.208 -1.1189 -2.5004 -1.2232
   51CHL1   H4B 4887   6.458   4.899   3.168  1.3930 -0.3006 -0.0802
   51CHL1    C5 4888   6.425   4.833   3.378 -0.6150 -0.3972  0.1219
   51CHL1    C6 4889   6.431   4.954   3.433  0.3512 -0.0862  0.1681
   51CHL1    H6 4890   6.462   5.041   3.373 -0.3497 -0.2057 -0.3790
   51CHL1    C7 4891   6.432   4.993   3.578  0.0872  0.3153  0.0168
   51CHL1   H7A 4892   6.521   5.055   3.604 -1.5477  3.2649 -0.9706
   51CHL1   H7B 4893   6.339   5.047   3.607  0.0180  0.6516 -0.8201
   51CHL1    C8 4894   6.440   4.865   3.665 -0.2673  0.4673  0.4595
   51CHL1    H8 4895   6.547   4.835   3.671 -0.5639 -0.6073  0.6505
   51CHL1   C14 4896   6.401   4.887   3.809  0.1277  1.2116  0.3083
   51CHL1   H14 4897   6.301   4.937   3.817  0.7124  2.3791  0.5723
   51CHL1   C15 4898   6.483   4.995   3.881 -0.3273  0.3000 -0.7688
   51CHL1  H15A 4899   6.590   4.975   3.858 -0.3469 -0.6395 -0.1129
   51CHL1  H15B 4900   6.457   5.101   3.863  1.7703  1.0241  0.2083
   51CHL1   C16 4901   6.455   4.960   4.029 -0.2851  0.1486 -0.6849
   51CHL1  H16A 4902   6.558   4.933   4.062  0.0980  0.9773 -1.1889
   51CHL1  H16B 4903   6.412   5.038   4.095 -0.5315 -1.6557  1.3980
   51CHL1   C17 4904   6.365   4.836   4.036 -0.5971  0.4484 -0.1728
   51CHL1   H17 4905   6.259   4.869   4.027 -0.1461  1.5061 -1.9253
   51CHL1   C13 4906   6.398   4.768   3.902 -0.1919 -0.0214  0.5334
   51CHL1   C18 4907   6.528   4.690   3.922  0.1036 -0.9017 -0.3124
   51CHL1  H18A 4908   6.606   4.735   3.987 -1.4077 -1.9479  2.4083
   51CHL1  H18B 4909   6.506   4.587   3.958  2.6790 -2.5905 -3.1465
   51CHL1  H18C 4910   6.589   4.672   3.831 -1.1859  0.8024 -1.5850
   51CHL1   C12 4911   6.297   4.662   3.840  0.2368 -0.0646  0.2548
   51CHL1  H12A 4912   6.308   4.567   3.897  0.8728 -1.1532 -1.6058
   51CHL1  H12B 4913   6.189   4.684   3.859  0.3242 -0.0140  0.7103
   51CHL1   C11 4914   6.337   4.631   3.700  0.3209 -0.1977  0.0649
   51CHL1  H11A 4915   6.434   4.576   3.697  0.3357 -0.1724  0.0738
   51CHL1  H11B 4916   6.257   4.567   3.657 -0.8176 -0.1293  1.9476
   51CHL1    C9 4917   6.349   4.752   3.609 -0.9222 -1.0577 -0.0733
   51CHL1    H9 4918   6.246   4.793   3.607 -1.2597 -1.9102 -0.7348
   51CHL1   C10 4919   6.396   4.706   3.467 -0.1677  0.3951  0.4299
   51CHL1   C19 4920   6.518   4.606   3.474  0.0320 -0.3919 -0.7761
   51CHL1  H19A 4921   6.582   4.613   3.383 -1.1650 -1.1461 -1.7068
   51CHL1  H19B 4922   6.586   4.641   3.555 -1.6601  1.6106 -0.1523
   51CHL1  H19C 4923   6.486   4.503   3.501  1.3996 -0.0604  2.5727
   51CHL1    C1 4924   6.281   4.628   3.393  0.7682 -0.6259 -0.3504
   51CHL1   H1A 4925   6.256   4.532   3.444  1.9489 -0.4491  0.6239
   51CHL1   H1B 4926   6.192   4.693   3.407  1.6846  0.3145  1.5137
   51CHL1    C2 4927   6.298   4.604   3.243  0.9196 -0.0375  1.0086
   51CHL1   H2A 4928   6.205   4.564   3.197  0.6952  0.8368  0.6991
   51CHL1   H2B 4929   6.377   4.526   3.240  0.5209 -0.4286  0.5306
   51CHL1   C20 4930   6.391   4.767   4.173 -0.5196 -0.0246 -0.4621
   51CHL1   H20 4931   6.485   4.707   4.179 -0.2985  0.4111  0.6887
   51CHL1   C21 4932   6.295   4.651   4.192  0.9655 -0.4378  0.6670
   51CHL1  H21A 4933   6.313   4.591   4.283 -0.3583 -1.4636  0.2856
   51CHL1  H21B 4934   6.307   4.577   4.110  0.7299 -1.0472  1.1791
   51CHL1  H21C 4935   6.189   4.685   4.193  0.8472 -0.7803  0.2287
   51CHL1   C22 4936   6.404   4.868   4.290 -0.5095  0.0038  0.6289
   51CHL1  H22A 4937   6.499   4.920   4.267  1.3286 -4.0702 -2.1683
   51CHL1  H22B 4938   6.318   4.938   4.285 -0.8893 -0.4165  1.1320
   51CHL1   C23 4939   6.420   4.809   4.430  0.2671 -0.0222  0.7024
   51CHL1  H23A 4940   6.392   4.885   4.506 -1.0953  0.4440 -0.2241
   51CHL1  H23B 4941   6.343   4.732   4.450  0.3313 -0.4977 -0.7601
   51CHL1   C24 4942   6.561   4.753   4.466  0.1303  0.6612  0.3228
   51CHL1  H24A 4943   6.577   4.673   4.391 -0.7678  1.3277 -0.6081
   51CHL1  H24B 4944   6.636   4.834   4.451 -0.0830  1.0566  1.3226
   51CHL1   C25 4945   6.565   4.713   4.619  0.6035  0.8675 -0.6453
   51CHL1   H25 4946   6.476   4.652   4.642  2.0002 -1.4200 -1.0096
   51CHL1   C26 4947   6.691   4.625   4.648  0.6099  0.0615  0.0888
   51CHL1  H26A 4948   6.685   4.569   4.744  1.3584 -0.1931 -0.0044
   51CHL1  H26B 4949   6.707   4.549   4.568 -3.2107 -1.5707  0.6591
   51CHL1  H26C 4950   6.782   4.688   4.646  1.5327 -1.2311 -0.6826
   51CHL1   C27 4951   6.567   4.836   4.713 -0.1028 -0.3600  0.0652
   51CHL1  H27A 4952   6.509   4.916   4.663 -0.9316 -1.5025 -0.8840
   51CHL1  H27B 4953   6.521   4.818   4.813  0.3646 -0.1107  0.3289
   51CHL1  H27C 4954   6.673   4.856   4.739 -0.3234 -1.2245  1.7649
   52CHL1    C3 4955   6.600   5.491   3.611  0.5820 -0.2116 -0.3202
   52CHL1    H3 4956   6.491   5.476   3.623  0.4359 -0.5247 -1.8338
   52CHL1    O3 4957   6.619   5.527   3.474 -0.1135 -0.2477 -0.0140
   52CHL1   H3' 4958   6.573   5.463   3.419  1.6317 -0.1888 -1.6524
   52CHL1    C4 4959   6.646   5.607   3.702 -0.0445  0.7374 -0.5717
   52CHL1   H4A 4960   6.754   5.608   3.678  0.1092 -2.9073 -0.5962
   52CHL1   H4B 4961   6.580   5.694   3.682 -0.6078  0.6748  0.8732
   52CHL1    C5 4962   6.634   5.567   3.847 -0.2235 -0.0507  0.5491
   52CHL1    C6 4963   6.566   5.646   3.928  0.8489 -0.0457  0.0171
   52CHL1    H6 4964   6.528   5.746   3.903  0.4430 -0.0887  0.4278
   52CHL1    C7 4965   6.557   5.599   4.070 -0.1390  0.3272 -0.7397
   52CHL1   H7A 4966   6.575   5.689   4.133  1.0241 -2.1856  2.8731
   52CHL1   H7B 4967   6.456   5.558   4.089  0.0614  0.2352  0.2052
   52CHL1    C8 4968   6.659   5.494   4.119  0.5104  0.1907  0.0239
   52CHL1    H8 4969   6.756   5.546   4.130 -0.0212  1.3812 -0.7391
   52CHL1   C14 4970   6.630   5.443   4.255  0.4864 -0.5569  0.3368
   52CHL1   H14 4971   6.531   5.394   4.255 -0.3051  0.9714 -0.8312
   52CHL1   C15 4972   6.607   5.551   4.361 -0.2447  0.4802 -0.1760
   52CHL1  H15A 4973   6.672   5.639   4.346  0.7551  0.2198  2.1270
   52CHL1  H15B 4974   6.505   5.594   4.347 -0.5829 -0.6080 -1.1788
   52CHL1   C16 4975   6.617   5.470   4.496  0.5562  0.9380 -0.0518
   52CHL1  H16A 4976   6.686   5.522   4.565  0.5586  0.8793 -0.0101
   52CHL1  H16B 4977   6.515   5.462   4.541  1.1947  1.5885  1.5708
   52CHL1   C17 4978   6.657   5.325   4.459  0.1397  0.8775  0.1674
   52CHL1   H17 4979   6.565   5.264   4.447 -0.9077  2.2121  1.0393
   52CHL1   C13 4980   6.721   5.335   4.319  0.1661 -0.4198  0.0861
   52CHL1   C18 4981   6.863   5.393   4.338  0.2648 -0.2082  0.4666
   52CHL1  H18A 4982   6.868   5.481   4.405  1.0991  1.6752 -1.8984
   52CHL1  H18B 4983   6.930   5.313   4.376  2.8919  2.1000  1.0339
   52CHL1  H18C 4984   6.896   5.425   4.237  1.0011 -1.6986  0.2158
   52CHL1   C12 4985   6.701   5.214   4.227 -0.2180 -0.8291  0.3037
   52CHL1  H12A 4986   6.755   5.123   4.259 -3.8034 -3.3759 -0.2657
   52CHL1  H12B 4987   6.596   5.180   4.220  0.1731 -2.0060  0.0418
   52CHL1   C11 4988   6.740   5.256   4.088  0.2721 -0.0439  0.2325
   52CHL1  H11A 4989   6.848   5.284   4.087 -0.3135  2.3620 -0.0442
   52CHL1  H11B 4990   6.729   5.163   4.027 -0.6156 -0.6388  1.2693
   52CHL1    C9 4991   6.661   5.379   4.024  0.4866  0.3091 -0.3843
   52CHL1    H9 4992   6.559   5.336   4.031  0.9353 -0.6345  0.6610
   52CHL1   C10 4993   6.697   5.426   3.882  0.1509 -0.7376  0.1890
   52CHL1   C19 4994   6.849   5.426   3.883 -0.1059 -0.0451  0.3296
   52CHL1  H19A 4995   6.902   5.329   3.899 -1.1033 -0.3228  2.2006
   52CHL1  H19B 4996   6.871   5.465   3.782 -1.5124  1.3245  0.5219
   52CHL1  H19C 4997   6.879   5.491   3.968  1.1348 -0.9922  0.6514
   52CHL1    C1 4998   6.648   5.316   3.783 -0.6274 -0.6400 -0.2726
   52CHL1   H1A 4999   6.701   5.219   3.790  0.7893 -0.0342 -1.9329
   52CHL1   H1B 5000   6.538   5.306   3.794 -0.9987  2.7119  0.0976
   52CHL1    C2 5001   6.671   5.362   3.637 -0.1451  0.1275 -0.6216
   52CHL1   H2A 5002   6.633   5.287   3.564 -0.4488 -0.4194  0.0870
   52CHL1   H2B 5003   6.781   5.359   3.625 -0.0277 -0.4286  0.4833
   52CHL1   C20 5004   6.720   5.249   4.583  0.0106 -0.0374 -0.4755
   52CHL1   H20 5005   6.810   5.304   4.619 -0.5870  2.6315 -2.6899
   52CHL1   C21 5006   6.758   5.106   4.543 -0.0892 -0.4868 -0.5062
   52CHL1  H21A 5007   6.665   5.064   4.500  0.5632 -0.4960 -1.9600
   52CHL1  H21B 5008   6.792   5.056   4.636  0.3150  0.2850 -0.2359
   52CHL1  H21C 5009   6.841   5.125   4.471 -1.0279 -0.5588 -1.6358
   52CHL1   C22 5010   6.625   5.233   4.702 -0.1700 -0.0831  0.4080
   52CHL1  H22A 5011   6.568   5.327   4.722  0.6640  0.3495  0.7886
   52CHL1  H22B 5012   6.542   5.160   4.695 -0.0924 -0.2111  0.7992
   52CHL1   C23 5013   6.683   5.206   4.845  0.5135  0.3211  0.5127
   52CHL1  H23A 5014   6.749   5.117   4.850  1.7438  1.2897  3.7863
   52CHL1  H23B 5015   6.746   5.293   4.874 -0.3842  0.8933  0.7802
   52CHL1   C24 5016   6.565   5.188   4.940 -0.2948  0.7139  0.2537
   52CHL1  H24A 5017   6.513   5.285   4.941 -1.7943 -0.0506 -0.7321
   52CHL1  H24B 5018   6.495   5.107   4.910  0.6620 -1.3823  3.1075
   52CHL1   C25 5019   6.616   5.129   5.071 -0.2397 -0.2782 -0.4832
   52CHL1   H25 5020   6.698   5.196   5.105  0.0398 -1.6863  1.8952
   52CHL1   C26 5021   6.509   5.136   5.182  0.1114  0.0442 -0.3821
   52CHL1  H26A 5022   6.556   5.103   5.277 -1.5856 -1.7465 -0.1145
   52CHL1  H26B 5023   6.467   5.238   5.195 -0.0355  0.1573 -1.6084
   52CHL1  H26C 5024   6.423   5.074   5.148 -0.4303  0.1971  0.6690
   52CHL1   C27 5025   6.662   4.981   5.063  0.3828 -0.6521  0.0613
   52CHL1  H27A 5026   6.693   4.954   5.166 -1.1909  1.9959  1.3597
   52CHL1  H27B 5027   6.584   4.908   5.033  0.1128  0.0455 -1.0011
   52CHL1  H27C 5028   6.736   4.960   4.983  0.9792  3.3489 -0.6752
   53CHL1    C3 5029   5.913   4.286   3.237  0.3867  0.6759 -0.0550
   53CHL1    H3 5030   5.895   4.178   3.253 -0.9373  1.1810  2.2450
   53CHL1    O3 5031   5.930   4.301   3.096 -0.0580  0.2961  0.2681
   53CHL1   H3' 5032   5.881   4.381   3.075  0.9550  0.5210 -1.4109
   53CHL1    C4 5033   5.793   4.361   3.302  0.6721  0.5019  1.1325
   53CHL1   H4A 5034   5.784   4.467   3.269 -1.1764  0.3871  1.1855
   53CHL1   H4B 5035   5.704   4.316   3.254  0.9722  1.3158 -0.2672
   53CHL1    C5 5036   5.790   4.350   3.452 -0.1302  0.1707 -0.3275
   53CHL1    C6 5037   5.683   4.303   3.522 -0.0712  0.0712  0.4125
   53CHL1    H6 5038   5.602   4.248   3.472  1.3829 -0.7511 -1.1657
   53CHL1    C7 5039   5.677   4.289   3.670  0.0169  0.0757  0.0661
   53CHL1   H7A 5040   5.573   4.316   3.701  0.4722 -0.2738  2.0246
   53CHL1   H7B 5041   5.685   4.185   3.706 -1.8713 -0.4699 -0.9343
   53CHL1    C8 5042   5.780   4.378   3.739 -0.3675 -0.2886 -0.5780
   53CHL1    H8 5043   5.753   4.486   3.738  1.1411  0.1527  1.0002
   53CHL1   C14 5044   5.784   4.331   3.885  1.2319  0.2486 -0.2098
   53CHL1   H14 5045   5.821   4.227   3.877 -0.1057 -0.1799 -1.1095
   53CHL1   C15 5046   5.650   4.303   3.963 -0.0681  0.4841  0.0744
   53CHL1  H15A 5047   5.571   4.379   3.947 -0.3034  0.4352  0.9503
   53CHL1  H15B 5048   5.608   4.206   3.929 -1.9453  1.1215  0.4582
   53CHL1   C16 5049   5.706   4.301   4.109 -0.2659 -0.8416 -0.0629
   53CHL1  H16A 5050   5.638   4.366   4.167 -0.2227 -0.1434 -0.7802
   53CHL1  H16B 5051   5.685   4.202   4.155  0.0879 -1.6554 -1.5837
   53CHL1   C17 5052   5.853   4.331   4.102 -0.0804  0.3056 -0.4539
   53CHL1   H17 5053   5.903   4.234   4.085  0.6633  0.7305 -0.7506
   53CHL1   C13 5054   5.883   4.413   3.969 -0.8060  0.2038 -0.5791
   53CHL1   C18 5055   5.842   4.560   3.980 -0.6457  0.7864 -0.0854
   53CHL1  H18A 5056   5.912   4.617   4.046  0.9742 -1.0289 -0.1640
   53CHL1  H18B 5057   5.833   4.605   3.879 -0.6014  0.0468 -0.4275
   53CHL1  H18C 5058   5.739   4.569   4.019  0.5453  1.2682  3.2836
   53CHL1   C12 5059   6.021   4.389   3.908  1.1015 -0.4157 -0.0463
   53CHL1  H12A 5060   6.107   4.437   3.961  0.1951  0.8490  0.3260
   53CHL1  H12B 5061   6.041   4.280   3.908  1.3046 -0.3791 -0.3978
   53CHL1   C11 5062   6.026   4.428   3.754 -0.0668 -0.4237  0.0382
   53CHL1  H11A 5063   6.000   4.536   3.754 -0.7907 -0.5933 -0.2648
   53CHL1  H11B 5064   6.128   4.404   3.716  0.2055  0.7779 -0.0269
   53CHL1    C9 5065   5.917   4.353   3.675 -0.3716 -0.1496 -0.0849
   53CHL1    H9 5066   5.942   4.245   3.683  1.7886  0.3209  0.3158
   53CHL1   C10 5067   5.914   4.386   3.521  0.1919 -0.3590 -0.1302
   53CHL1   C19 5068   5.931   4.536   3.504 -0.6597  0.6018  0.2796
   53CHL1  H19A 5069   6.028   4.576   3.540  0.8458 -0.2115 -2.6350
   53CHL1  H19B 5070   5.901   4.575   3.404  1.3483  0.5295 -0.3899
   53CHL1  H19C 5071   5.850   4.588   3.561 -0.8308  0.6564 -0.0108
   53CHL1    C1 5072   6.041   4.312   3.459  0.4828  0.2272  0.5045
   53CHL1   H1A 5073   6.130   4.365   3.498  0.6973  0.5005 -0.3371
   53CHL1   H1B 5074   6.037   4.203   3.480  2.0631 -0.3859 -1.9997
   53CHL1    C2 5075   6.048   4.329   3.305 -0.0355  0.2132 -0.1146
   53CHL1   H2A 5076   6.133   4.272   3.261  1.1704  1.7874  0.1018
   53CHL1   H2B 5077   6.072   4.437   3.294 -0.7693  0.3711 -0.2166
   53CHL1   C20 5078   5.918   4.380   4.228  0.3287 -0.7317 -0.0107
   53CHL1   H20 5079   6.025   4.409   4.217  0.0120  1.3209  1.5957
   53CHL1   C21 5080   5.910   4.261   4.324  0.1812 -0.0354 -0.4295
   53CHL1  H21A 5081   5.986   4.248   4.404  1.4714 -0.0739 -1.6388
   53CHL1  H21B 5082   5.900   4.157   4.285  0.8161  0.0486 -0.8425
   53CHL1  H21C 5083   5.817   4.285   4.380  1.1649  2.1999  0.3567
   53CHL1   C22 5084   5.874   4.510   4.309 -0.1929 -0.1881 -0.2280
   53CHL1  H22A 5085   5.904   4.595   4.245 -1.3543 -0.6403 -1.4232
   53CHL1  H22B 5086   5.764   4.521   4.323  0.1004  1.5807  0.9139
   53CHL1   C23 5087   5.963   4.527   4.434 -0.1683 -0.0780 -0.6711
   53CHL1  H23A 5088   5.947   4.447   4.509  0.0349 -0.1743 -0.7294
   53CHL1  H23B 5089   6.070   4.520   4.403  0.8247 -1.6335  2.6124
   53CHL1   C24 5090   5.946   4.659   4.511  0.3748  0.0417 -0.3463
   53CHL1  H24A 5091   5.971   4.739   4.439 -4.0066  2.3355  0.3418
   53CHL1  H24B 5092   5.836   4.671   4.525  0.5620  1.9888 -0.3444
   53CHL1   C25 5093   6.021   4.678   4.648  0.7161 -0.1730  0.0651
   53CHL1   H25 5094   5.962   4.600   4.701  0.8936 -1.9871 -2.2243
   53CHL1   C26 5095   6.166   4.647   4.664 -0.2559 -0.4554 -0.0416
   53CHL1  H26A 5096   6.208   4.567   4.600  0.0229  1.2247 -2.1053
   53CHL1  H26B 5097   6.223   4.734   4.625  0.1185 -0.6517  0.0665
   53CHL1  H26C 5098   6.178   4.634   4.773 -2.3204  1.8933  0.5713
   53CHL1   C27 5099   5.987   4.814   4.699  0.3843  0.2632 -0.2971
   53CHL1  H27A 5100   6.008   4.824   4.807  4.1593  1.9700 -1.0362
   53CHL1  H27B 5101   6.047   4.892   4.647  0.7519 -0.8032 -1.5244
   53CHL1  H27C 5102   5.878   4.826   4.679  0.7270  0.0863 -2.5891
   54CHL1    C3 5103   6.009   6.603   3.390  0.0204  0.1008  0.9296
   54CHL1    H3 5104   6.048   6.706   3.385  0.6735 -0.2003 -2.8394
   54CHL1    O3 5105   5.979   6.566   3.259 -0.0470  0.0964  0.6167
   54CHL1   H3' 5106   5.892   6.602   3.238  0.2832  0.6023  0.0470
   54CHL1    C4 5107   6.113   6.501   3.439 -0.1990  0.3005  1.0915
   54CHL1   H4A 5108   6.073   6.397   3.440  0.2458  0.1248  0.6791
   54CHL1   H4B 5109   6.200   6.509   3.371  0.2976 -1.6438  1.4500
   54CHL1    C5 5110   6.151   6.526   3.583 -0.3660  0.4990 -0.0334
   54CHL1    C6 5111   6.278   6.530   3.625 -0.4378  0.3335 -0.7440
   54CHL1    H6 5112   6.348   6.534   3.541 -1.0993  2.2930 -1.2489
   54CHL1    C7 5113   6.330   6.541   3.773  0.3840  0.3889 -0.0167
   54CHL1   H7A 5114   6.413   6.470   3.793  0.7880  0.3779 -1.6469
   54CHL1   H7B 5115   6.365   6.646   3.781 -0.0492  0.8504 -3.1050
   54CHL1    C8 5116   6.215   6.523   3.873  1.1068  0.2512  0.0524
   54CHL1    H8 5117   6.210   6.413   3.886 -0.7942  0.2852 -0.2137
   54CHL1   C14 5118   6.236   6.585   4.015 -0.4807 -0.3912 -0.8741
   54CHL1   H14 5119   6.225   6.693   3.993  1.5358 -0.1266 -0.7676
   54CHL1   C15 5120   6.363   6.561   4.097 -0.6131 -0.2267  0.7637
   54CHL1  H15A 5121   6.385   6.453   4.111 -1.8861 -1.0590 -2.5607
   54CHL1  H15B 5122   6.451   6.601   4.042  0.0264 -2.3828  0.1289
   54CHL1   C16 5123   6.335   6.616   4.237 -0.2324 -0.1486 -0.1738
   54CHL1  H16A 5124   6.365   6.532   4.303 -0.3543 -2.3054 -2.6817
   54CHL1  H16B 5125   6.405   6.700   4.255 -1.3665  0.3710  2.2060
   54CHL1   C17 5126   6.187   6.645   4.238  0.0836 -0.3768  0.0177
   54CHL1   H17 5127   6.185   6.752   4.207 -0.8398  0.0621  1.4792
   54CHL1   C13 5128   6.128   6.569   4.120  0.1473 -0.6927 -0.0063
   54CHL1   C18 5129   6.106   6.427   4.167  0.2953  0.8418 -0.3153
   54CHL1  H18A 5130   6.202   6.386   4.205 -1.4514 -1.5473  1.8414
   54CHL1  H18B 5131   6.044   6.431   4.260  1.3947 -1.4481  0.5999
   54CHL1  H18C 5132   6.068   6.352   4.095  2.2645 -0.6845  0.1353
   54CHL1   C12 5133   5.993   6.628   4.073 -0.1699  0.8724  0.0450
   54CHL1  H12A 5134   5.910   6.588   4.136  1.1386 -1.4836  0.4153
   54CHL1  H12B 5135   6.004   6.738   4.076 -0.6714  0.9469 -0.6764
   54CHL1   C11 5136   5.961   6.575   3.932  0.5982  0.7109 -0.4256
   54CHL1  H11A 5137   5.935   6.468   3.949  1.6149  0.4085 -0.6838
   54CHL1  H11B 5138   5.872   6.618   3.883 -0.0505 -1.7384 -1.5622
   54CHL1    C9 5139   6.079   6.578   3.826 -0.3042 -0.2300  0.0580
   54CHL1    H9 5140   6.103   6.685   3.809  0.5702 -0.5693 -0.9291
   54CHL1   C10 5141   6.033   6.530   3.683 -0.3669 -0.1540 -0.0622
   54CHL1   C19 5142   5.986   6.384   3.697  0.5379  0.4403 -0.0753
   54CHL1  H19A 5143   5.918   6.363   3.783 -1.1617 -0.8833 -1.6755
   54CHL1  H19B 5144   5.932   6.362   3.603 -2.1817  2.1746  0.9530
   54CHL1  H19C 5145   6.074   6.318   3.711 -0.3657 -0.5227  1.3927
   54CHL1    C1 5146   5.924   6.628   3.627  0.7273  0.3454  0.0457
   54CHL1   H1A 5147   5.822   6.612   3.668  0.7975  0.9419  0.4566
   54CHL1   H1B 5148   5.970   6.729   3.629 -0.4919  1.1744 -3.7859
   54CHL1    C2 5149   5.887   6.603   3.479  0.4799 -0.2423  0.0302
   54CHL1   H2A 5150   5.819   6.681   3.437 -0.4485 -2.3028 -2.5697
   54CHL1   H2B 5151   5.828   6.510   3.464  0.0802  0.4624 -4.3268
   54CHL1   C20 5152   6.114   6.648   4.379 -0.6128  0.3058 -0.2910
   54CHL1   H20 5153   6.107   6.543   4.415 -1.7792  0.4580 -0.0352
   54CHL1   C21 5154   5.973   6.715   4.368 -0.1964 -0.2719  0.5669
   54CHL1  H21A 5155   5.954   6.755   4.470  0.5366  1.5703  0.0158
   54CHL1  H21B 5156   5.888   6.647   4.346 -0.1200  0.1127 -0.9611
   54CHL1  H21C 5157   5.975   6.814   4.317 -2.1626  0.0994  1.1281
   54CHL1   C22 5158   6.194   6.713   4.481 -0.1630  0.0031 -0.1573
   54CHL1  H22A 5159   6.299   6.678   4.482 -0.3274 -0.4927 -0.3184
   54CHL1  H22B 5160   6.186   6.824   4.472 -1.9221  0.1626  2.1100
   54CHL1   C23 5161   6.147   6.675   4.625 -0.4146  1.0673  0.0459
   54CHL1  H23A 5162   6.036   6.672   4.629 -0.4036  1.0030  0.2980
   54CHL1  H23B 5163   6.183   6.573   4.651  1.2917  1.6713  0.1888
   54CHL1   C24 5164   6.186   6.773   4.730 -0.2480 -0.5394 -0.4262
   54CHL1  H24A 5165   6.158   6.878   4.705  1.7844  0.3710  0.8715
   54CHL1  H24B 5166   6.120   6.751   4.817 -1.0894  2.3435 -0.2175
   54CHL1   C25 5167   6.337   6.769   4.778  0.4626  0.3609 -0.1758
   54CHL1   H25 5168   6.402   6.761   4.688  2.6456  1.6352  1.2197
   54CHL1   C26 5169   6.375   6.905   4.834  0.0460 -0.0744 -0.0591
   54CHL1  H26A 5170   6.391   6.977   4.751  2.3009  0.2002  0.5595
   54CHL1  H26B 5171   6.301   6.940   4.908  1.5247  0.5560  1.1647
   54CHL1  H26C 5172   6.473   6.898   4.884 -1.0200 -2.5297  1.8901
   54CHL1   C27 5173   6.371   6.659   4.879 -0.5416 -0.4967 -0.3532
   54CHL1  H27A 5174   6.481   6.641   4.885 -0.8142 -1.8490  3.3779
   54CHL1  H27B 5175   6.334   6.688   4.979  2.4509  1.3341  0.3372
   54CHL1  H27C 5176   6.310   6.569   4.853 -0.8600 -0.6138  0.7703
   55CHL1    C3 5177   3.001   4.484   3.233 -0.3114 -0.1476 -0.1772
   55CHL1    H3 5178   3.093   4.425   3.251  0.3713  0.8976 -0.1673
   55CHL1    O3 5179   2.963   4.472   3.101 -0.0330  0.6515  0.1321
   55CHL1   H3' 5180   3.006   4.543   3.053  0.3360  0.0719 -0.4236
   55CHL1    C4 5181   2.894   4.412   3.314 -0.0444  0.4503  0.1699
   55CHL1   H4A 5182   2.803   4.470   3.291 -0.5387 -0.2033  0.4471
   55CHL1   H4B 5183   2.873   4.307   3.284  1.5846 -0.2509  1.3227
   55CHL1    C5 5184   2.920   4.417   3.460 -0.2283 -0.5172  0.5364
   55CHL1    C6 5185   2.936   4.302   3.530 -0.3349 -0.1360 -0.6474
   55CHL1    H6 5186   2.949   4.200   3.492  1.1528 -1.7513  3.6350
   55CHL1    C7 5187   2.956   4.299   3.679 -0.7163 -0.2861  0.3757
   55CHL1   H7A 5188   2.910   4.215   3.734 -1.3734 -0.7875 -0.9097
   55CHL1   H7B 5189   3.063   4.273   3.689 -0.2850  1.3410  0.3721
   55CHL1    C8 5190   2.923   4.434   3.743 -0.2663  0.0253 -0.2445
   55CHL1    H8 5191   2.814   4.454   3.734 -0.4986 -1.5593 -1.1898
   55CHL1   C14 5192   2.967   4.427   3.888 -0.0078  0.4696 -1.0783
   55CHL1   H14 5193   3.077   4.409   3.887 -0.1612 -0.5065 -1.0597
   55CHL1   C15 5194   2.911   4.319   3.988  0.4336  0.0726  0.0027
   55CHL1  H15A 5195   2.803   4.300   3.967  0.2235  0.5010  0.6745
   55CHL1  H15B 5196   2.981   4.232   3.989  0.5691  0.1832  0.3972
   55CHL1   C16 5197   2.948   4.376   4.125  0.8117 -0.4159 -0.8425
   55CHL1  H16A 5198   2.859   4.388   4.190  0.6699  0.9932 -1.2602
   55CHL1  H16B 5199   3.029   4.312   4.166  0.1125 -1.0737 -0.4949
   55CHL1   C17 5200   3.011   4.521   4.095  0.0695  0.3538  0.4121
   55CHL1   H17 5201   3.119   4.500   4.084 -0.2725 -2.5911  1.8000
   55CHL1   C13 5202   2.957   4.566   3.963  0.0501  0.2820  0.4041
   55CHL1   C18 5203   2.804   4.600   3.983  0.2094 -0.8066 -0.6788
   55CHL1  H18A 5204   2.756   4.594   3.884 -1.3913  0.1277  0.0042
   55CHL1  H18B 5205   2.751   4.520   4.040 -1.6447 -0.2058 -1.4855
   55CHL1  H18C 5206   2.784   4.689   4.046  1.0534 -2.6714  2.4647
   55CHL1   C12 5207   3.042   4.675   3.895 -0.1269  0.1529  0.7128
   55CHL1  H12A 5208   3.039   4.773   3.947 -0.0239  0.0142  0.9810
   55CHL1  H12B 5209   3.148   4.642   3.888 -0.1559  0.1169  0.3902
   55CHL1   C11 5210   2.982   4.689   3.751  0.1618  0.6198  0.2162
   55CHL1  H11A 5211   2.876   4.718   3.765  0.0925 -0.3134  1.8029
   55CHL1  H11B 5212   3.042   4.769   3.703  0.5802  0.6837  0.8494
   55CHL1    C9 5213   2.997   4.554   3.671 -0.1393  0.2281  0.4146
   55CHL1    H9 5214   3.104   4.523   3.663 -0.9585 -2.5025 -4.1395
   55CHL1   C10 5215   2.947   4.561   3.521  0.2150  0.2660  0.6523
   55CHL1   C19 5216   2.817   4.652   3.499  0.3139  0.3875 -0.0291
   55CHL1  H19A 5217   2.845   4.760   3.505 -1.3089  0.9425 -1.5994
   55CHL1  H19B 5218   2.774   4.640   3.397  0.0024  1.5780 -0.0604
   55CHL1  H19C 5219   2.735   4.626   3.569  0.5776  0.6454  0.3841
   55CHL1    C1 5220   3.060   4.618   3.434 -0.4549 -0.5347 -0.5331
   55CHL1   H1A 5221   3.069   4.723   3.469 -1.0013 -1.1137  1.4902
   55CHL1   H1B 5222   3.153   4.557   3.441  0.3050  0.5307 -0.9656
   55CHL1    C2 5223   3.040   4.629   3.282 -0.3247 -0.2039 -0.1485
   55CHL1   H2A 5224   3.139   4.652   3.238  0.9473 -0.4662  2.4206
   55CHL1   H2B 5225   2.960   4.705   3.269 -0.6174 -0.5673 -0.5296
   55CHL1   C20 5226   2.995   4.616   4.208  0.0668  0.5004  0.3199
   55CHL1   H20 5227   2.906   4.683   4.200 -0.3441 -0.0832 -0.0345
   55CHL1   C21 5228   3.132   4.692   4.208  0.1407  0.6688 -0.2720
   55CHL1  H21A 5229   3.212   4.621   4.238 -2.3596 -0.7113  4.1381
   55CHL1  H21B 5230   3.143   4.775   4.281  1.9626 -0.6474  1.0375
   55CHL1  H21C 5231   3.163   4.742   4.114  1.2900 -0.9084 -0.7633
   55CHL1   C22 5232   2.966   4.547   4.346  0.4116 -0.0547  0.2981
   55CHL1  H22A 5233   2.864   4.504   4.338  0.7109 -0.5987 -0.7515
   55CHL1  H22B 5234   3.035   4.461   4.356 -0.3994 -0.7460  0.0258
   55CHL1   C23 5235   2.953   4.648   4.461  0.7961 -0.5782 -0.4552
   55CHL1  H23A 5236   3.056   4.688   4.472 -0.3178  2.2716  0.5898
   55CHL1  H23B 5237   2.882   4.728   4.429 -0.1784 -1.1039  0.3156
   55CHL1   C24 5238   2.894   4.579   4.585 -0.5650 -0.1460 -0.1497
   55CHL1  H24A 5239   2.804   4.520   4.558 -0.7464  0.6573 -1.4406
   55CHL1  H24B 5240   2.973   4.510   4.620 -0.2057 -0.4279 -1.4586
   55CHL1   C25 5241   2.874   4.674   4.702 -0.2494 -0.5962 -0.1260
   55CHL1   H25 5242   2.795   4.738   4.658  0.1185 -0.2625 -0.3106
   55CHL1   C26 5243   2.797   4.609   4.820 -0.5093  0.2044 -0.2868
   55CHL1  H26A 5244   2.740   4.690   4.870 -0.7731  1.2786 -2.2596
   55CHL1  H26B 5245   2.725   4.534   4.780  0.3321  0.2977 -2.0791
   55CHL1  H26C 5246   2.866   4.567   4.897  1.6140  2.1552 -1.0071
   55CHL1   C27 5247   2.990   4.764   4.746 -0.4113  0.7637 -0.0559
   55CHL1  H27A 5248   3.071   4.694   4.774  0.1538  1.6455  0.5920
   55CHL1  H27B 5249   3.031   4.826   4.663  0.0889  0.6239  0.0826
   55CHL1  H27C 5250   2.956   4.821   4.836  1.5680 -0.1291  1.3207
   56CHL1    C3 5251   2.802   3.159   3.383 -0.7951  0.0691  0.0346
   56CHL1    H3 5252   2.717   3.094   3.415 -2.2159  1.5666 -0.6039
   56CHL1    O3 5253   2.792   3.144   3.242 -0.5537 -0.0472  0.0853
   56CHL1   H3' 5254   2.794   3.232   3.204 -1.5766  0.6263  1.5308
   56CHL1    C4 5255   2.774   3.302   3.418 -0.2945 -0.8482 -0.8568
   56CHL1   H4A 5256   2.845   3.370   3.367 -2.3152  0.6210 -1.8476
   56CHL1   H4B 5257   2.674   3.319   3.373 -1.0262 -2.6038 -0.0073
   56CHL1    C5 5258   2.781   3.338   3.564  0.0336  0.1736 -0.1251
   56CHL1    C6 5259   2.675   3.395   3.627 -0.1558  0.6137  0.1854
   56CHL1    H6 5260   2.582   3.419   3.572  0.5532  0.6494 -1.0419
   56CHL1    C7 5261   2.673   3.422   3.774 -0.1331 -1.0474 -0.1267
   56CHL1   H7A 5262   2.651   3.530   3.793  0.7997 -0.8687  0.0229
   56CHL1   H7B 5263   2.595   3.356   3.817 -1.0472  0.2324  0.2502
   56CHL1    C8 5264   2.809   3.402   3.848 -0.0256  0.3753 -0.2473
   56CHL1    H8 5265   2.869   3.492   3.826 -0.5466  1.0363  0.9476
   56CHL1   C14 5266   2.782   3.392   3.996  0.5509 -0.2183 -0.0288
   56CHL1   H14 5267   2.728   3.296   4.008 -0.7130  0.4553 -0.2302
   56CHL1   C15 5268   2.679   3.501   4.052 -0.1083 -0.5330 -0.4354
   56CHL1  H15A 5269   2.714   3.599   4.015  0.0294 -0.7088 -0.7769
   56CHL1  H15B 5270   2.578   3.474   4.014 -0.0143 -0.4303 -0.7599
   56CHL1   C16 5271   2.708   3.485   4.203 -0.3025  0.3209 -0.1867
   56CHL1  H16A 5272   2.747   3.577   4.253  0.5047 -1.0946  1.9575
   56CHL1  H16B 5273   2.618   3.464   4.265  0.3858 -0.2472  0.6580
   56CHL1   C17 5274   2.833   3.379   4.225  0.2535 -0.0773 -0.1502
   56CHL1   H17 5275   2.788   3.278   4.236  2.3175 -0.8440  2.1172
   56CHL1   C13 5276   2.902   3.384   4.084  0.6337  0.6731 -0.1862
   56CHL1   C18 5277   2.986   3.506   4.083 -0.7150  0.2374  0.2600
   56CHL1  H18A 5278   3.065   3.502   4.161  0.4078  1.4532 -0.7587
   56CHL1  H18B 5279   3.048   3.512   3.991  0.7063  0.6213  1.2156
   56CHL1  H18C 5280   2.921   3.594   4.103 -2.0827 -0.5006 -0.7718
   56CHL1   C12 5281   2.983   3.255   4.039  0.3415  0.3444 -0.0540
   56CHL1  H12A 5282   3.080   3.245   4.092  0.2350 -2.2372 -0.2529
   56CHL1  H12B 5283   2.926   3.161   4.056  1.5783 -0.0822  2.1632
   56CHL1   C11 5284   3.004   3.247   3.883  0.3034  0.2673  0.2895
   56CHL1  H11A 5285   3.082   3.324   3.867  0.7238 -0.1637  0.2567
   56CHL1  H11B 5286   3.053   3.149   3.868  0.6432  0.3489  0.8580
   56CHL1    C9 5287   2.878   3.275   3.795  0.9557 -0.2626  0.1337
   56CHL1    H9 5288   2.813   3.188   3.819  1.4412 -0.5904  0.3045
   56CHL1   C10 5289   2.907   3.270   3.638  0.1603 -1.0440  0.7331
   56CHL1   C19 5290   3.041   3.350   3.594 -0.0699  0.3365 -0.1463
   56CHL1  H19A 5291   3.129   3.296   3.635 -0.2139  0.4823  0.3685
   56CHL1  H19B 5292   3.047   3.367   3.485  3.1361  0.6930 -0.0233
   56CHL1  H19C 5293   3.026   3.442   3.655  1.8372  0.9478 -0.5464
   56CHL1    C1 5294   2.935   3.127   3.593  0.5725 -0.0218  0.2960
   56CHL1   H1A 5295   3.038   3.101   3.626  0.9526  0.3571 -0.5598
   56CHL1   H1B 5296   2.860   3.059   3.640  2.7578 -1.6492  1.6602
   56CHL1    C2 5297   2.933   3.108   3.436 -0.2373 -0.5010 -0.3978
   56CHL1   H2A 5298   2.967   3.006   3.409  0.5037 -0.3746  0.0307
   56CHL1   H2B 5299   3.012   3.179   3.404 -2.0888  2.0672  0.4241
   56CHL1   C20 5300   2.918   3.403   4.353  0.2813 -0.3281 -0.1133
   56CHL1   H20 5301   2.970   3.501   4.347  2.3656 -1.3697  0.2601
   56CHL1   C21 5302   3.012   3.288   4.359  0.0837 -1.2127  0.5070
   56CHL1  H21A 5303   2.985   3.199   4.299 -0.1255 -0.0890 -1.1325
   56CHL1  H21B 5304   3.034   3.255   4.463  1.8192  0.5752  0.7925
   56CHL1  H21C 5305   3.114   3.329   4.340 -0.3727  1.4156  2.9934
   56CHL1   C22 5306   2.834   3.404   4.479  0.9087 -0.0715 -0.3903
   56CHL1  H22A 5307   2.753   3.478   4.459 -2.1076 -2.8400  0.6456
   56CHL1  H22B 5308   2.776   3.310   4.494  0.4168  0.2569 -0.2127
   56CHL1   C23 5309   2.897   3.448   4.614  0.5194  0.2732  0.8394
   56CHL1  H23A 5310   2.834   3.422   4.702  0.5121  0.3758  0.8651
   56CHL1  H23B 5311   2.986   3.384   4.632 -0.0819 -0.4630  1.2623
   56CHL1   C24 5312   2.920   3.599   4.625 -0.6777 -0.4892  0.2646
   56CHL1  H24A 5313   2.966   3.628   4.528 -1.7021 -0.9827 -0.3856
   56CHL1  H24B 5314   2.827   3.658   4.639  0.1792  1.2983 -1.1307
   56CHL1   C25 5315   3.006   3.652   4.736 -0.8433  0.7224 -0.0298
   56CHL1   H25 5316   2.962   3.608   4.828 -0.5348  1.5893  0.5379
   56CHL1   C26 5317   3.157   3.612   4.726  0.0118  0.0085  0.3031
   56CHL1  H26A 5318   3.162   3.501   4.719 -0.8941 -0.0905  0.9644
   56CHL1  H26B 5319   3.206   3.656   4.637  3.0812 -2.0455  0.8273
   56CHL1  H26C 5320   3.215   3.650   4.813 -0.4012  1.5959 -0.0944
   56CHL1   C27 5321   2.995   3.799   4.742 -0.2817 -0.3161 -0.2494
   56CHL1  H27A 5322   2.999   3.840   4.639  1.2658 -0.7938 -0.4133
   56CHL1  H27B 5323   2.898   3.840   4.778 -0.0528  0.6578 -0.7248
   56CHL1  H27C 5324   3.087   3.836   4.791 -0.5181  0.5372 -0.4341
   57CHL1    C3 5325   3.418   1.819   3.729 -0.2633 -0.4632  0.5596
   57CHL1    H3 5326   3.446   1.718   3.764 -1.4123  0.1811  3.7414
   57CHL1    O3 5327   3.455   1.843   3.597 -0.3413  0.1275 -0.1013
   57CHL1   H3' 5328   3.378   1.828   3.543  0.5697  2.9329 -2.4366
   57CHL1    C4 5329   3.267   1.831   3.745 -0.7850 -0.2380  0.2796
   57CHL1   H4A 5330   3.243   1.938   3.725  1.3556  0.4250  0.9970
   57CHL1   H4B 5331   3.209   1.777   3.667  0.5927  1.5268 -2.1267
   57CHL1    C5 5332   3.235   1.803   3.886  0.2657  0.1048 -0.1401
   57CHL1    C6 5333   3.145   1.709   3.912 -0.2147  0.2536  0.6622
   57CHL1    H6 5334   3.101   1.655   3.827 -0.8586 -1.0538  1.7636
   57CHL1    C7 5335   3.087   1.691   4.049  0.0421 -0.6672  0.6745
   57CHL1   H7A 5336   2.977   1.686   4.033  0.2068 -1.4865 -0.3434
   57CHL1   H7B 5337   3.129   1.600   4.099  2.0575  0.5702  1.3617
   57CHL1    C8 5338   3.124   1.814   4.143 -0.3653 -0.1767 -0.0567
   57CHL1    H8 5339   3.051   1.894   4.121  1.2225  1.0863 -0.9475
   57CHL1   C14 5340   3.098   1.780   4.288  0.7450  0.0574 -0.1133
   57CHL1   H14 5341   3.169   1.701   4.319  1.2535  1.6803  3.4843
   57CHL1   C15 5342   2.965   1.718   4.322  0.2733  0.5429  0.1490
   57CHL1  H15A 5343   2.881   1.765   4.265 -3.8851  1.3087  5.9670
   57CHL1  H15B 5344   2.977   1.609   4.303  1.0537  0.3220  1.7959
   57CHL1   C16 5345   2.930   1.755   4.475 -1.3545 -0.5119 -0.3369
   57CHL1  H16A 5346   2.839   1.816   4.496 -0.3723  0.2846  1.9723
   57CHL1  H16B 5347   2.915   1.662   4.534  0.7970  1.0344  2.9608
   57CHL1   C17 5348   3.067   1.834   4.521  0.2063 -0.2895  0.2033
   57CHL1   H17 5349   3.139   1.760   4.562  0.6345 -0.4842 -0.8694
   57CHL1   C13 5350   3.122   1.890   4.390 -0.0985  0.2844  0.4873
   57CHL1   C18 5351   3.021   2.003   4.356 -0.1430 -0.1667  0.6109
   57CHL1  H18A 5352   2.919   1.964   4.341  0.1952 -0.9092  0.2232
   57CHL1  H18B 5353   3.007   2.084   4.432 -2.8815 -0.6479  0.7054
   57CHL1  H18C 5354   3.057   2.062   4.268 -0.9760  1.9196  1.5903
   57CHL1   C12 5355   3.270   1.933   4.385 -0.2965  0.5372 -0.4890
   57CHL1  H12A 5356   3.291   2.023   4.446  0.8492  0.8326 -1.2808
   57CHL1  H12B 5357   3.336   1.852   4.425  0.2340 -0.6827 -3.5402
   57CHL1   C11 5358   3.309   1.967   4.239  0.8696 -0.0595 -0.4339
   57CHL1  H11A 5359   3.271   2.070   4.224 -0.4096  0.2037  3.6037
   57CHL1  H11B 5360   3.419   1.970   4.227  0.8226 -0.5167 -1.0980
   57CHL1    C9 5361   3.274   1.859   4.130 -0.5760  0.3255 -0.5822
   57CHL1    H9 5362   3.340   1.774   4.157  1.3132  2.1838  0.9820
   57CHL1   C10 5363   3.308   1.899   3.989  0.7877  0.0128 -0.6187
   57CHL1   C19 5364   3.245   2.044   3.966  0.3516  0.4255 -0.0372
   57CHL1  H19A 5365   3.136   2.046   3.991  0.6269  2.0002  1.2401
   57CHL1  H19B 5366   3.293   2.126   4.023  0.0328 -0.0664  0.9676
   57CHL1  H19C 5367   3.244   2.074   3.859 -1.9348 -0.3167 -0.2954
   57CHL1    C1 5368   3.462   1.897   3.959 -0.1016 -0.1658 -1.2244
   57CHL1   H1A 5369   3.516   1.975   4.016 -1.5560 -1.4831  2.2932
   57CHL1   H1B 5370   3.501   1.794   3.978 -3.0209 -1.5945 -2.3318
   57CHL1    C2 5371   3.499   1.913   3.809  0.0475 -0.0460  0.5676
   57CHL1   H2A 5372   3.609   1.903   3.800 -0.0294 -0.1315 -0.4327
   57CHL1   H2B 5373   3.476   2.016   3.774 -0.7258  0.2204  1.8033
   57CHL1   C20 5374   3.034   1.918   4.641  0.4418 -0.0514  0.4965
   57CHL1   H20 5375   2.958   1.997   4.626  1.4113  1.1991  1.8934
   57CHL1   C21 5376   3.162   1.980   4.689  0.4064  0.0649 -0.6019
   57CHL1  H21A 5377   3.243   1.904   4.697 -0.1807 -0.4126  1.2182
   57CHL1  H21B 5378   3.162   2.043   4.780  2.3256  1.2668 -1.3641
   57CHL1  H21C 5379   3.181   2.053   4.607  2.5447  0.1446 -0.0910
   57CHL1   C22 5380   2.974   1.841   4.766  0.1327 -1.4264 -0.5608
   57CHL1  H22A 5381   2.971   1.916   4.849  0.8778 -0.6322 -1.2368
   57CHL1  H22B 5382   2.867   1.826   4.738 -1.0731  1.5779  1.7800
   57CHL1   C23 5383   3.041   1.714   4.814 -0.0594  0.0861 -0.1354
   57CHL1  H23A 5384   3.045   1.642   4.730  0.3806  2.0686 -1.8967
   57CHL1  H23B 5385   3.143   1.743   4.847  1.1894 -0.4634 -3.2079
   57CHL1   C24 5386   2.960   1.642   4.923  0.2086  0.8507 -0.3807
   57CHL1  H24A 5387   2.853   1.666   4.906 -0.1921 -1.4648 -1.5179
   57CHL1  H24B 5388   2.976   1.534   4.903 -1.9565  0.5105 -0.5823
   57CHL1   C25 5389   2.998   1.665   5.073  0.6175  0.2957 -0.7840
   57CHL1   H25 5390   2.993   1.772   5.104  1.3944  0.6002 -1.6820
   57CHL1   C26 5391   2.889   1.603   5.170 -0.2947 -0.1171 -0.0417
   57CHL1  H26A 5392   2.790   1.647   5.141 -0.0117  0.3289 -0.3482
   57CHL1  H26B 5393   2.885   1.492   5.168  1.4328 -0.2149  0.6983
   57CHL1  H26C 5394   2.903   1.642   5.273 -0.6309 -0.2036  0.0399
   57CHL1   C27 5395   3.133   1.612   5.109  0.4214 -0.1949  0.0287
   57CHL1  H27A 5396   3.149   1.509   5.069 -0.3374 -0.3258  0.0568
   57CHL1  H27B 5397   3.222   1.669   5.073 -0.7597  0.8215 -1.3924
   57CHL1  H27C 5398   3.159   1.606   5.217  1.2999 -2.8672 -0.2481
   58CHL1    C3 5399   1.607   4.879   3.385 -0.7759 -0.0794 -0.1028
   58CHL1    H3 5400   1.714   4.906   3.387 -0.5035 -1.1316  0.6196
   58CHL1    O3 5401   1.562   4.857   3.252 -0.4402 -0.2900 -0.1358
   58CHL1   H3' 5402   1.618   4.798   3.201  1.3387  2.1098 -1.1671
   58CHL1    C4 5403   1.589   4.749   3.462 -0.2535  0.6140 -0.3782
   58CHL1   H4A 5404   1.487   4.708   3.454  1.1361 -3.5627  0.8969
   58CHL1   H4B 5405   1.654   4.670   3.419 -2.1986 -0.7509 -0.9122
   58CHL1    C5 5406   1.604   4.768   3.610 -0.1758 -0.2782 -0.9013
   58CHL1    C6 5407   1.693   4.691   3.677  0.4352 -0.7612  0.2252
   58CHL1    H6 5408   1.763   4.628   3.620 -0.7156  0.1402 -2.3478
   58CHL1    C7 5409   1.711   4.710   3.829 -0.3966 -0.4707  0.6534
   58CHL1   H7A 5410   1.728   4.612   3.879  1.0817 -0.1683  0.8048
   58CHL1   H7B 5411   1.804   4.762   3.860 -0.7608 -0.3169  1.5136
   58CHL1    C8 5412   1.597   4.780   3.906  0.1327 -0.2300  0.0629
   58CHL1    H8 5413   1.500   4.727   3.908 -0.3287  0.6009  2.1468
   58CHL1   C14 5414   1.643   4.816   4.041 -0.1985 -0.1092  0.4503
   58CHL1   H14 5415   1.741   4.865   4.025 -0.4695  0.3966  0.3135
   58CHL1   C15 5416   1.678   4.700   4.140  0.7875  0.3134 -0.5865
   58CHL1  H15A 5417   1.595   4.628   4.122  0.6612  0.3549 -0.1656
   58CHL1  H15B 5418   1.773   4.645   4.125  0.1923 -0.7803 -0.4614
   58CHL1   C16 5419   1.675   4.760   4.279  0.3722  0.6466 -1.0293
   58CHL1  H16A 5420   1.610   4.700   4.347  2.9160 -0.7858  0.3044
   58CHL1  H16B 5421   1.771   4.769   4.335 -0.9333  2.2315  1.1233
   58CHL1   C17 5422   1.612   4.899   4.253  0.2279 -0.1031  0.8609
   58CHL1   H17 5423   1.699   4.965   4.232  1.0268 -1.4280 -0.1885
   58CHL1   C13 5424   1.539   4.894   4.118  0.0400 -0.0145 -0.7923
   58CHL1   C18 5425   1.399   4.820   4.119 -0.0774  0.4419 -0.2145
   58CHL1  H18A 5426   1.334   4.892   4.173  0.1039  0.8030 -0.4689
   58CHL1  H18B 5427   1.351   4.816   4.019 -0.9561 -0.2031  0.2188
   58CHL1  H18C 5428   1.411   4.720   4.164  0.0458  0.4254 -0.2842
   58CHL1   C12 5429   1.519   5.026   4.048  0.3832 -0.4373  0.2683
   58CHL1  H12A 5430   1.433   5.082   4.090  0.8247  0.3194  0.1702
   58CHL1  H12B 5431   1.609   5.090   4.053  0.0849  0.3296 -2.4243
   58CHL1   C11 5432   1.488   5.008   3.892  0.1998 -0.5047 -0.7512
   58CHL1  H11A 5433   1.380   4.981   3.891  0.4041 -1.3140 -1.4332
   58CHL1  H11B 5434   1.509   5.104   3.839 -0.7524  0.1318 -0.0182
   58CHL1    C9 5435   1.572   4.905   3.822 -0.2024  0.6282 -0.8530
   58CHL1    H9 5436   1.668   4.960   3.812 -0.3192  0.4946 -3.2851
   58CHL1   C10 5437   1.523   4.877   3.680  0.4598  0.0692  0.1758
   58CHL1   C19 5438   1.375   4.822   3.687  0.2197  0.6968  0.2353
   58CHL1  H19A 5439   1.312   4.904   3.728  1.5589  2.9530 -1.9626
   58CHL1  H19B 5440   1.336   4.786   3.589  0.8834  0.0525  0.2011
   58CHL1  H19C 5441   1.365   4.733   3.753 -2.9904  0.1148 -0.8503
   58CHL1    C1 5442   1.530   5.005   3.591 -0.5813 -0.0078 -0.1528
   58CHL1   H1A 5443   1.470   5.089   3.632 -0.2498  0.4136 -0.5116
   58CHL1   H1B 5444   1.637   5.033   3.602 -0.0665 -1.6063 -0.7194
   58CHL1    C2 5445   1.515   4.988   3.437 -0.0353  0.1952 -0.7040
   58CHL1   H2A 5446   1.543   5.084   3.389  0.7762  0.5643  0.4683
   58CHL1   H2B 5447   1.409   4.958   3.423 -0.2972  1.3300 -1.2403
   58CHL1   C20 5448   1.551   4.973   4.363 -0.0870 -0.3377  0.1091
   58CHL1   H20 5449   1.495   5.060   4.323  1.2370 -0.4269 -2.0947
   58CHL1   C21 5450   1.660   5.020   4.464  0.3913  0.0838 -0.4785
   58CHL1  H21A 5451   1.701   5.116   4.425  0.3602 -0.5153 -2.0371
   58CHL1  H21B 5452   1.733   4.939   4.484 -0.9974 -0.6513  1.9603
   58CHL1  H21C 5453   1.615   5.047   4.562  0.0420 -1.4313 -0.1957
   58CHL1   C22 5454   1.451   4.895   4.451 -0.0509  0.1528  0.0726
   58CHL1  H22A 5455   1.384   4.839   4.383 -0.6190 -2.1480  2.3842
   58CHL1  H22B 5456   1.507   4.834   4.525 -2.6469 -1.0952  1.1302
   58CHL1   C23 5457   1.351   4.992   4.522 -0.9090 -0.4534 -0.6191
   58CHL1  H23A 5458   1.415   5.075   4.557  0.5150 -0.7182 -2.4218
   58CHL1  H23B 5459   1.283   5.043   4.451  0.0087  0.4239 -0.8828
   58CHL1   C24 5460   1.279   4.935   4.638  0.4355  0.1347 -1.0304
   58CHL1  H24A 5461   1.364   4.910   4.706  0.1292  2.2042  0.2075
   58CHL1  H24B 5462   1.209   4.999   4.697  0.6850 -0.5183  0.0148
   58CHL1   C25 5463   1.195   4.805   4.612 -0.8487 -0.8637 -0.0156
   58CHL1   H25 5464   1.267   4.731   4.570  1.2697  0.2313  1.5365
   58CHL1   C26 5465   1.131   4.757   4.737 -0.6585 -0.9029  0.2476
   58CHL1  H26A 5466   1.193   4.792   4.822  1.9825 -0.9393 -1.5561
   58CHL1  H26B 5467   1.030   4.802   4.749 -0.7654 -1.1706  0.3781
   58CHL1  H26C 5468   1.112   4.647   4.745  0.3142 -1.2798 -2.0073
   58CHL1   C27 5469   1.093   4.829   4.502 -0.4760  0.3147 -0.1711
   58CHL1  H27A 5470   1.039   4.734   4.482 -2.0330  1.2935 -0.7946
   58CHL1  H27B 5471   1.018   4.910   4.511 -1.4105 -0.4870 -0.5484
   58CHL1  H27C 5472   1.152   4.841   4.408  0.1207 -1.2866 -0.0304
   59CHL1    C3 5473   6.364   0.694   3.506  1.2066  0.0531 -0.0716
   59CHL1    H3 5474   6.443   0.768   3.533  1.7945 -0.5087 -0.2467
   59CHL1    O3 5475   6.367   0.657   3.370  0.0877  0.2125 -0.0127
   59CHL1   H3' 5476   6.310   0.580   3.370  1.3522 -0.7633 -0.3153
   59CHL1    C4 5477   6.385   0.566   3.599  0.0428 -0.2459 -0.3115
   59CHL1   H4A 5478   6.319   0.487   3.557 -0.3967 -0.4491  0.7349
   59CHL1   H4B 5479   6.489   0.528   3.583 -0.4629 -1.7812 -0.1267
   59CHL1    C5 5480   6.354   0.580   3.744 -0.4787  0.0009 -0.1083
   59CHL1    C6 5481   6.436   0.546   3.841 -0.2402 -0.0685  0.0982
   59CHL1    H6 5482   6.533   0.504   3.813 -1.6435 -1.4177 -3.2960
   59CHL1    C7 5483   6.399   0.544   3.989 -0.1304 -0.3989 -0.4266
   59CHL1   H7A 5484   6.429   0.450   4.040 -3.1816 -0.4547  1.4747
   59CHL1   H7B 5485   6.449   0.626   4.045  0.7435 -0.6753 -0.7884
   59CHL1    C8 5486   6.250   0.565   4.016  0.6571  0.1667  0.4584
   59CHL1    H8 5487   6.199   0.470   3.987 -1.3644  0.8737  1.4881
   59CHL1   C14 5488   6.219   0.597   4.164  0.3017 -0.5656  0.6909
   59CHL1   H14 5489   6.290   0.682   4.171 -0.0964 -0.0229 -1.3411
   59CHL1   C15 5490   6.264   0.508   4.284  0.5801 -0.1398  0.0203
   59CHL1  H15A 5491   6.230   0.403   4.269  1.8792 -0.7411  1.0611
   59CHL1  H15B 5492   6.374   0.508   4.298  0.7507  0.8353 -1.1239
   59CHL1   C16 5493   6.197   0.566   4.404  0.4627  0.7295 -0.0567
   59CHL1  H16A 5494   6.128   0.491   4.448  0.4221  1.0523  0.4458
   59CHL1  H16B 5495   6.267   0.609   4.479 -0.8721 -0.2884  1.8633
   59CHL1   C17 5496   6.111   0.684   4.344  0.5918 -0.2968 -0.3404
   59CHL1   H17 5497   6.176   0.774   4.341  0.9451 -0.4923  0.9182
   59CHL1   C13 5498   6.086   0.650   4.195 -0.2169 -0.6645 -0.7493
   59CHL1   C18 5499   5.984   0.526   4.189 -0.0389 -0.5547  0.1955
   59CHL1  H18A 5500   5.881   0.564   4.203  0.2526 -0.1656  1.3994
   59CHL1  H18B 5501   5.997   0.479   4.089  0.5437  0.5354 -0.2623
   59CHL1  H18C 5502   6.009   0.454   4.270  2.3326  0.9088  0.8689
   59CHL1   C12 5503   6.061   0.771   4.107  0.5502  0.1025  0.3886
   59CHL1  H12A 5504   5.963   0.823   4.119 -0.8126 -2.4441  1.1059
   59CHL1  H12B 5505   6.146   0.839   4.126  2.8694 -2.6773  0.5892
   59CHL1   C11 5506   6.066   0.732   3.960 -0.6789  0.3058  0.0751
   59CHL1  H11A 5507   5.986   0.658   3.942 -1.9132  1.2176  1.5128
   59CHL1  H11B 5508   6.046   0.822   3.898 -3.8388 -1.2474 -1.3463
   59CHL1    C9 5509   6.200   0.679   3.920 -0.5975  0.5008  0.1243
   59CHL1    H9 5510   6.264   0.769   3.937  1.2298 -0.2401 -2.3815
   59CHL1   C10 5511   6.222   0.644   3.772  0.7662  0.9442 -0.4443
   59CHL1   C19 5512   6.115   0.543   3.735 -0.0676  0.1254 -0.3514
   59CHL1  H19A 5513   6.140   0.438   3.758  2.0278  0.4314 -0.9827
   59CHL1  H19B 5514   6.011   0.576   3.753  0.0699  1.4693 -1.7217
   59CHL1  H19C 5515   6.115   0.546   3.624  1.7173  1.7115 -0.3549
   59CHL1    C1 5516   6.204   0.775   3.686  0.3391 -0.2885 -0.3587
   59CHL1   H1A 5517   6.101   0.808   3.709 -1.7204 -2.5251 -5.0046
   59CHL1   H1B 5518   6.276   0.849   3.728 -0.0298 -0.4398  0.5608
   59CHL1    C2 5519   6.234   0.767   3.534 -0.0191  0.1912 -0.5619
   59CHL1   H2A 5520   6.250   0.867   3.488  0.6792  1.0072  1.3117
   59CHL1   H2B 5521   6.144   0.714   3.497 -1.8697 -2.4996  6.2117
   59CHL1   C20 5522   5.988   0.716   4.442 -0.1989 -0.0003 -0.3547
   59CHL1   H20 5523   5.924   0.627   4.453 -1.1278  0.3883 -2.2170
   59CHL1   C21 5524   5.901   0.822   4.380  0.2040 -0.2623 -0.5236
   59CHL1  H21A 5525   5.967   0.909   4.364  0.1387 -0.2157 -0.5409
   59CHL1  H21B 5526   5.822   0.839   4.457 -0.5237 -3.5272 -0.4161
   59CHL1  H21C 5527   5.856   0.791   4.283  2.0555 -1.8653 -0.9307
   59CHL1   C22 5528   6.031   0.756   4.586 -0.3933 -0.7635 -0.3153
   59CHL1  H22A 5529   5.938   0.786   4.638  0.3249 -0.1966  0.6810
   59CHL1  H22B 5530   6.050   0.679   4.664 -3.9226  0.7707  2.3202
   59CHL1   C23 5531   6.133   0.867   4.604 -0.1571 -0.0911  0.0733
   59CHL1  H23A 5532   6.234   0.830   4.577 -0.0000  1.8498 -2.3767
   59CHL1  H23B 5533   6.111   0.952   4.535  0.1854 -0.9713 -1.1584
   59CHL1   C24 5534   6.128   0.921   4.754  0.0934 -0.4332  0.1643
   59CHL1  H24A 5535   6.042   0.990   4.769  0.0708 -0.7748  1.8800
   59CHL1  H24B 5536   6.116   0.836   4.825  2.3651 -0.9272  0.0407
   59CHL1   C25 5537   6.255   0.994   4.798  0.0757 -0.3567  0.2615
   59CHL1   H25 5538   6.342   0.948   4.746 -0.9922  1.2637 -3.3100
   59CHL1   C26 5539   6.262   1.135   4.734  0.2206  0.5566 -0.8955
   59CHL1  H26A 5540   6.356   1.192   4.746  0.4551  0.2233 -1.1600
   59CHL1  H26B 5541   6.232   1.123   4.627  0.0855  1.8433 -1.0199
   59CHL1  H26C 5542   6.170   1.186   4.771  0.8627  0.2891  1.1707
   59CHL1   C27 5543   6.286   1.003   4.952 -0.8480 -0.7733  0.1188
   59CHL1  H27A 5544   6.358   1.083   4.980 -1.9386 -0.7870  3.4162
   59CHL1  H27B 5545   6.185   1.032   4.989 -2.1964 -3.6996 -0.9518
   59CHL1  H27C 5546   6.305   0.902   4.995 -1.8380 -0.3786  1.5579
   60CHL1    C3 5547   1.268   6.435   3.388 -0.9998  0.3045  0.1388
   60CHL1    H3 5548   1.347   6.362   3.417 -0.3340  0.9789  0.0548
   60CHL1    O3 5549   1.270   6.440   3.245  0.1008  0.2862 -0.1816
   60CHL1   H3' 5550   1.263   6.346   3.230  0.2422 -0.0750  1.7844
   60CHL1    C4 5551   1.137   6.386   3.449 -0.3288 -0.0953 -0.3803
   60CHL1   H4A 5552   1.067   6.458   3.400 -0.6936 -0.5785 -0.5838
   60CHL1   H4B 5553   1.117   6.284   3.410  1.0642 -0.7892  0.6722
   60CHL1    C5 5554   1.130   6.394   3.601  0.0797 -0.3534 -0.3828
   60CHL1    C6 5555   1.111   6.279   3.670  0.0235 -0.7535  0.8122
   60CHL1    H6 5556   1.092   6.181   3.623  2.6899 -0.7403 -0.4757
   60CHL1    C7 5557   1.094   6.268   3.815 -0.3830 -0.1741 -0.3118
   60CHL1   H7A 5558   1.017   6.199   3.856  2.6359 -2.4368  2.0276
   60CHL1   H7B 5559   1.184   6.213   3.850  0.5718  0.9706 -0.8846
   60CHL1    C8 5560   1.083   6.406   3.890 -0.5245  0.3852  0.0714
   60CHL1    H8 5561   0.977   6.440   3.879 -0.9459 -1.4280 -2.3095
   60CHL1   C14 5562   1.117   6.387   4.038  0.0752  0.0785  0.1856
   60CHL1   H14 5563   1.221   6.349   4.040 -0.7474 -2.3293  0.4187
   60CHL1   C15 5564   1.039   6.280   4.116  0.5609 -0.2411 -0.5541
   60CHL1  H15A 5565   0.929   6.287   4.101  0.6678  2.4093 -0.5590
   60CHL1  H15B 5566   1.081   6.181   4.087 -0.7441 -0.8027 -0.5790
   60CHL1   C16 5567   1.073   6.312   4.262 -0.8476 -0.6374 -0.1589
   60CHL1  H16A 5568   0.978   6.341   4.312 -1.1238 -0.1766 -0.9369
   60CHL1  H16B 5569   1.122   6.225   4.311  0.2789  0.0782  0.0127
   60CHL1   C17 5570   1.160   6.441   4.253 -0.0513 -0.6223  0.9309
   60CHL1   H17 5571   1.266   6.412   4.234 -0.6310 -1.1320 -2.0560
   60CHL1   C13 5572   1.119   6.509   4.120  0.0704 -0.3181  0.1865
   60CHL1   C18 5573   0.977   6.576   4.136 -0.2349  0.2526 -0.1725
   60CHL1  H18A 5574   0.938   6.611   4.038 -0.1675 -0.5228 -0.4821
   60CHL1  H18B 5575   0.915   6.501   4.191  0.1257 -0.4130 -0.6657
   60CHL1  H18C 5576   0.986   6.667   4.200 -2.5681  0.1965  0.3115
   60CHL1   C12 5577   1.222   6.604   4.054 -0.1009 -0.0398 -0.5538
   60CHL1  H12A 5578   1.232   6.704   4.102 -1.5833  0.3073 -0.9296
   60CHL1  H12B 5579   1.323   6.558   4.063 -0.5089 -0.7713  0.5131
   60CHL1   C11 5580   1.183   6.632   3.911  0.0801 -1.0804 -0.4276
   60CHL1  H11A 5581   1.085   6.685   3.907  1.0248  0.7520 -0.3534
   60CHL1  H11B 5582   1.259   6.695   3.861 -1.8055  0.6244 -1.2934
   60CHL1    C9 5583   1.183   6.506   3.826 -0.0097 -0.2857 -0.2060
   60CHL1    H9 5584   1.276   6.450   3.844 -0.2772 -0.5635  0.3248
   60CHL1   C10 5585   1.161   6.523   3.674  0.1922 -0.4928  0.6871
   60CHL1   C19 5586   1.039   6.610   3.660 -0.0599 -0.7762  0.3038
   60CHL1  H19A 5587   1.018   6.625   3.552  0.5518  0.9351  0.3942
   60CHL1  H19B 5588   0.948   6.570   3.710  0.0533  0.7226  1.8119
   60CHL1  H19C 5589   1.050   6.711   3.703  1.1629 -1.5345  1.9118
   60CHL1    C1 5590   1.291   6.580   3.607 -0.0081  0.4243  0.6781
   60CHL1   H1A 5591   1.313   6.686   3.630 -0.1667  0.1228  2.3578
   60CHL1   H1B 5592   1.370   6.506   3.633 -1.3437 -2.2980 -2.2527
   60CHL1    C2 5593   1.283   6.576   3.450 -0.1953 -0.2978  0.3111
   60CHL1   H2A 5594   1.383   6.601   3.409  0.2865  0.6926  2.0190
   60CHL1   H2B 5595   1.209   6.646   3.405 -0.6840 -1.0576 -0.0915
   60CHL1   C20 5596   1.148   6.525   4.382 -0.2740 -0.2398 -0.2163
   60CHL1   H20 5597   1.041   6.550   4.398 -0.0737  0.5127 -0.0295
   60CHL1   C21 5598   1.214   6.666   4.373  0.7354  0.3638  0.2831
   60CHL1  H21A 5599   1.213   6.722   4.469  1.2676  1.4125 -0.3122
   60CHL1  H21B 5600   1.168   6.730   4.296  1.8319  0.8478  0.0125
   60CHL1  H21C 5601   1.321   6.656   4.344  0.5135 -0.6330 -0.2393
   60CHL1   C22 5602   1.204   6.452   4.507 -0.4398 -0.4140  0.5113
   60CHL1  H22A 5603   1.170   6.346   4.501  0.1866 -0.5880 -0.1820
   60CHL1  H22B 5604   1.315   6.447   4.500 -0.3758  1.4905 -0.4043
   60CHL1   C23 5605   1.131   6.504   4.633 -0.4660 -0.1889  0.0548
   60CHL1  H23A 5606   1.168   6.609   4.639 -0.2374  0.0054 -2.9321
   60CHL1  H23B 5607   1.023   6.509   4.610 -0.5368  1.6208  0.6240
   60CHL1   C24 5608   1.170   6.418   4.752 -0.4420  0.1705 -0.0143
   60CHL1  H24A 5609   1.109   6.326   4.741 -2.5289  1.1857  2.2690
   60CHL1  H24B 5610   1.279   6.397   4.760 -0.9041 -2.2679  0.8368
   60CHL1   C25 5611   1.137   6.476   4.897 -0.1778  0.0791  0.2929
   60CHL1   H25 5612   1.186   6.576   4.899  0.9461 -0.4629  0.1603
   60CHL1   C26 5613   0.981   6.491   4.922 -0.1883 -0.4057 -0.0925
   60CHL1  H26A 5614   0.929   6.395   4.941 -2.9922  0.7285 -1.5536
   60CHL1  H26B 5615   0.971   6.550   5.016 -0.4506 -0.1095 -0.3068
   60CHL1  H26C 5616   0.926   6.552   4.848  0.0224 -0.7115 -0.5051
   60CHL1   C27 5617   1.194   6.384   5.004 -0.0888  0.4830 -0.7833
   60CHL1  H27A 5618   1.190   6.428   5.107 -0.9468  0.5426 -0.8273
   60CHL1  H27B 5619   1.132   6.292   5.003  0.0865  0.3567 -0.4243
   60CHL1  H27C 5620   1.292   6.342   4.976 -0.5363 -1.7293  0.7200
   61CHL1    C3 5621   2.251   3.921   3.340 -0.3914  0.1353 -0.1502
   61CHL1    H3 5622   2.360   3.928   3.363 -0.4962  0.3195  0.3022
   61CHL1    O3 5623   2.217   3.928   3.209  0.1621  0.0070 -0.3013
   61CHL1   H3' 5624   2.155   3.858   3.189 -0.3589 -0.7094  3.1994
   61CHL1    C4 5625   2.200   3.781   3.400  0.6857 -0.4857  0.4911
   61CHL1   H4A 5626   2.091   3.782   3.382  0.6967 -0.1146  0.4351
   61CHL1   H4B 5627   2.251   3.698   3.346 -1.0641 -0.7800 -0.7818
   61CHL1    C5 5628   2.224   3.771   3.548 -0.5954  0.0814  0.7909
   61CHL1    C6 5629   2.291   3.662   3.591 -0.2540  0.3971  0.1990
   61CHL1    H6 5630   2.335   3.586   3.525  2.5767  1.3532  0.8334
   61CHL1    C7 5631   2.294   3.623   3.734  0.4251  0.8983 -0.1288
   61CHL1   H7A 5632   2.265   3.516   3.742  0.0506  0.9077 -1.2123
   61CHL1   H7B 5633   2.401   3.625   3.764  0.3858  1.8545 -0.0147
   61CHL1    C8 5634   2.211   3.716   3.822  0.4161  0.1929  0.1058
   61CHL1    H8 5635   2.105   3.685   3.822  0.4557  0.0400  1.0500
   61CHL1   C14 5636   2.269   3.707   3.958 -1.0658 -1.0513  0.0457
   61CHL1   H14 5637   2.367   3.757   3.942 -0.2979 -1.7131  2.2556
   61CHL1   C15 5638   2.303   3.570   4.024  0.0313 -0.2211 -0.5490
   61CHL1  H15A 5639   2.212   3.506   4.029  0.9323 -1.4725  1.7980
   61CHL1  H15B 5640   2.385   3.515   3.972  0.2722 -0.1807 -0.2124
   61CHL1   C16 5641   2.331   3.611   4.168  0.0392  0.6395  0.9231
   61CHL1  H16A 5642   2.252   3.559   4.226  0.8744  1.4007  2.8172
   61CHL1  H16B 5643   2.431   3.583   4.208  0.9262  0.8817 -1.0233
   61CHL1   C17 5644   2.314   3.767   4.179 -1.0436  0.2809  0.5370
   61CHL1   H17 5645   2.413   3.812   4.157 -1.4893  0.6608 -0.7919
   61CHL1   C13 5646   2.220   3.802   4.067  0.2845  0.7493 -0.4718
   61CHL1   C18 5647   2.075   3.750   4.105 -0.2108  0.8562  0.5914
   61CHL1  H18A 5648   2.023   3.726   4.010  1.6876  1.3571 -0.6445
   61CHL1  H18B 5649   2.075   3.657   4.166  0.2026 -0.1285 -0.8383
   61CHL1  H18C 5650   2.018   3.818   4.171  0.8821  0.4402  2.0091
   61CHL1   C12 5651   2.226   3.942   4.020 -0.3134 -0.0101 -0.3834
   61CHL1  H12A 5652   2.178   4.012   4.093  2.6630  1.2383  0.5181
   61CHL1  H12B 5653   2.330   3.973   3.998 -0.9682  1.8747 -1.0497
   61CHL1   C11 5654   2.157   3.957   3.880 -0.3896  0.6100  0.0168
   61CHL1  H11A 5655   2.052   3.925   3.890 -0.0523 -0.3642  0.5153
   61CHL1  H11B 5656   2.162   4.062   3.843 -1.0856  0.1756 -1.3618
   61CHL1    C9 5657   2.225   3.858   3.778  0.8241 -0.2373  0.1081
   61CHL1    H9 5658   2.331   3.888   3.771  0.4422  0.8561 -1.6202
   61CHL1   C10 5659   2.165   3.880   3.634 -0.1983 -0.0170 -0.4189
   61CHL1   C19 5660   2.003   3.884   3.628 -0.3787  0.2926 -0.8111
   61CHL1  H19A 5661   1.964   3.915   3.529 -1.9191  1.4548  0.1051
   61CHL1  H19B 5662   1.972   3.786   3.671 -0.5578  1.1637  1.1774
   61CHL1  H19C 5663   1.972   3.960   3.703  2.2615  1.0581 -0.4046
   61CHL1    C1 5664   2.219   4.015   3.574 -0.5827  0.0302  0.2621
   61CHL1   H1A 5665   2.172   4.102   3.626 -0.5883 -1.2540  2.5018
   61CHL1   H1B 5666   2.330   4.015   3.571 -0.5942 -1.0316 -1.5075
   61CHL1    C2 5667   2.186   4.034   3.421  0.0034 -0.0013 -0.8278
   61CHL1   H2A 5668   2.223   4.137   3.402  1.8905  0.6531  4.5036
   61CHL1   H2B 5669   2.079   4.037   3.390  0.3651  3.5296 -2.1996
   61CHL1   C20 5670   2.288   3.809   4.318 -0.0404 -0.1218  0.2963
   61CHL1   H20 5671   2.201   3.751   4.355 -0.9654  1.5919  0.9138
   61CHL1   C21 5672   2.274   3.962   4.328  0.1214  0.0274  0.3037
   61CHL1  H21A 5673   2.285   3.999   4.432  1.6936  0.7569 -0.0866
   61CHL1  H21B 5674   2.169   3.996   4.313 -0.4062 -1.2397  0.9710
   61CHL1  H21C 5675   2.349   4.012   4.263  0.7917  0.1791  1.1736
   61CHL1   C22 5676   2.411   3.773   4.410  0.0256  0.1937  0.4396
   61CHL1  H22A 5677   2.441   3.667   4.398 -1.1604 -0.2142  0.8465
   61CHL1  H22B 5678   2.491   3.842   4.377 -1.6868  2.1140  0.1415
   61CHL1   C23 5679   2.390   3.793   4.558  0.0199  0.0183  0.0084
   61CHL1  H23A 5680   2.381   3.902   4.580  0.6069  0.3504 -1.2785
   61CHL1  H23B 5681   2.295   3.744   4.587  0.4607 -0.7549  0.1741
   61CHL1   C24 5682   2.502   3.747   4.644  0.7804 -0.1552 -0.3940
   61CHL1  H24A 5683   2.536   3.645   4.617 -1.7896 -1.0145 -0.6214
   61CHL1  H24B 5684   2.586   3.815   4.620  1.8254 -1.0962  0.4622
   61CHL1   C25 5685   2.477   3.761   4.797 -0.1695  0.2147 -0.0742
   61CHL1   H25 5686   2.374   3.733   4.829 -0.9732  1.8244 -1.1201
   61CHL1   C26 5687   2.569   3.667   4.877 -0.5349  0.2958  0.0575
   61CHL1  H26A 5688   2.571   3.563   4.837  2.1717 -0.2005  1.2480
   61CHL1  H26B 5689   2.670   3.713   4.871 -0.3264 -0.1220  0.3118
   61CHL1  H26C 5690   2.545   3.670   4.986 -0.7445  1.4086 -0.0072
   61CHL1   C27 5691   2.498   3.906   4.847 -0.4365 -0.0454  0.3473
   61CHL1  H27A 5692   2.495   3.923   4.957  1.0988 -2.3219  0.8157
   61CHL1  H27B 5693   2.597   3.945   4.816 -0.9273  1.7089  0.8620
   61CHL1  H27C 5694   2.418   3.976   4.815  0.1614  1.1147  1.2991
   62CHL1    C3 5695   5.863   2.871   2.957  0.5017 -0.7048  0.9868
   62CHL1    H3 5696   5.909   2.772   2.977 -0.1134 -1.4812 -1.1819
   62CHL1    O3 5697   5.853   2.893   2.818 -0.0102 -0.8184 -0.7343
   62CHL1   H3' 5698   5.822   2.982   2.800 -0.9478 -0.6236  1.4539
   62CHL1    C4 5699   5.733   2.857   3.021 -0.0889 -0.0374  0.2695
   62CHL1   H4A 5700   5.662   2.934   2.984 -0.5883 -1.5666 -2.1571
   62CHL1   H4B 5701   5.683   2.765   2.984  1.0281 -0.6401  0.2369
   62CHL1    C5 5702   5.739   2.845   3.172 -0.5736  0.1350  0.7634
   62CHL1    C6 5703   5.677   2.747   3.235  0.2047 -0.5118  0.0137
   62CHL1    H6 5704   5.624   2.669   3.178 -0.9603  0.4245 -0.2038
   62CHL1    C7 5705   5.691   2.715   3.381  0.9811  0.6799  0.3742
   62CHL1   H7A 5706   5.594   2.672   3.414  0.8369 -0.1441 -1.0333
   62CHL1   H7B 5707   5.757   2.626   3.387 -0.5395 -0.4689  0.8221
   62CHL1    C8 5708   5.734   2.839   3.461 -0.0836  0.5397  0.2533
   62CHL1    H8 5709   5.646   2.906   3.461 -0.0160  0.6552  1.7404
   62CHL1   C14 5710   5.777   2.810   3.605 -0.4705  0.1096 -0.1712
   62CHL1   H14 5711   5.869   2.747   3.598 -1.1332 -0.8425 -0.5459
   62CHL1   C15 5712   5.683   2.725   3.694  0.1031 -0.8500 -0.8519
   62CHL1  H15A 5713   5.578   2.761   3.688  0.7203  1.2836  0.3121
   62CHL1  H15B 5714   5.696   2.617   3.670 -0.0199 -1.3600  1.2034
   62CHL1   C16 5715   5.723   2.753   3.837 -0.2844 -0.2670  0.7847
   62CHL1  H16A 5716   5.641   2.795   3.900  0.7663  2.6495  0.3733
   62CHL1  H16B 5717   5.750   2.663   3.896 -2.7362  0.4778  3.3072
   62CHL1   C17 5718   5.830   2.862   3.837 -0.3488  0.0086 -0.2221
   62CHL1   H17 5719   5.929   2.813   3.830 -0.3828 -0.6313  2.4435
   62CHL1   C13 5720   5.808   2.935   3.697 -0.8644  0.3283  0.7871
   62CHL1   C18 5721   5.690   3.035   3.698 -0.6842 -0.1523  0.2758
   62CHL1  H18A 5722   5.657   3.080   3.603 -0.5113  0.3559  0.4526
   62CHL1  H18B 5723   5.604   2.988   3.750  1.2271  1.3678  5.5302
   62CHL1  H18C 5724   5.717   3.119   3.765  0.5375  0.3075 -0.7532
   62CHL1   C12 5725   5.936   2.996   3.627 -0.1325  0.6140 -0.7772
   62CHL1  H12A 5726   5.970   3.093   3.669  3.2736 -0.1483 -1.4288
   62CHL1  H12B 5727   6.030   2.936   3.623  0.9532  2.0527  1.1701
   62CHL1   C11 5728   5.903   3.030   3.475 -0.2840 -0.4694  0.3928
   62CHL1  H11A 5729   5.822   3.106   3.464  0.9424  1.0466  1.2988
   62CHL1  H11B 5730   5.989   3.075   3.421 -0.8888  2.9752  1.9804
   62CHL1    C9 5731   5.852   2.905   3.398 -1.2097  0.3851 -0.3674
   62CHL1    H9 5732   5.938   2.836   3.408 -1.1517  0.4423 -0.4771
   62CHL1   C10 5733   5.828   2.945   3.245 -0.5004  1.0901 -0.0581
   62CHL1   C19 5734   5.756   3.081   3.232 -0.5725  0.1815  0.3567
   62CHL1  H19A 5735   5.827   3.160   3.264  0.7189 -0.8983  0.2237
   62CHL1  H19B 5736   5.724   3.115   3.132  1.7370  2.5174  0.3041
   62CHL1  H19C 5737   5.670   3.076   3.303 -0.8478  0.3844  0.0419
   62CHL1    C1 5738   5.959   2.962   3.171 -0.5063 -0.4364  0.1118
   62CHL1   H1A 5739   6.024   3.041   3.213 -0.5768 -0.8244  0.9885
   62CHL1   H1B 5740   6.014   2.865   3.172 -2.4183 -1.6225 -1.4196
   62CHL1    C2 5741   5.944   2.980   3.013 -0.4371 -0.1770  0.5118
   62CHL1   H2A 5742   6.047   2.966   2.973 -0.7842 -0.1046 -0.4281
   62CHL1   H2B 5743   5.917   3.083   2.982 -1.8385 -0.3188  1.1718
   62CHL1   C20 5744   5.835   2.952   3.961  0.5516  0.3001 -0.0815
   62CHL1   H20 5745   5.753   3.026   3.953 -1.5932 -1.8944  0.6887
   62CHL1   C21 5746   5.973   3.022   3.971  1.0778  0.6574 -0.4433
   62CHL1  H21A 5747   5.970   3.083   4.064 -2.0877  0.7200 -0.4679
   62CHL1  H21B 5748   5.974   3.087   3.882 -0.7895 -0.3289 -1.2580
   62CHL1  H21C 5749   6.059   2.952   3.975  1.6219  1.3244 -0.4628
   62CHL1   C22 5750   5.797   2.880   4.094  0.0042  0.5148  0.4550
   62CHL1  H22A 5751   5.707   2.815   4.098  0.7732 -0.6241 -0.0122
   62CHL1  H22B 5752   5.881   2.813   4.123 -0.7687 -1.0044 -0.6647
   62CHL1   C23 5753   5.779   2.968   4.220 -0.0186  0.5323  0.1692
   62CHL1  H23A 5754   5.880   2.979   4.266  0.1100 -2.5115  0.8290
   62CHL1  H23B 5755   5.745   3.066   4.181  0.6398  0.9087  0.5146
   62CHL1   C24 5756   5.707   2.906   4.343  0.0106 -0.3003  0.6661
   62CHL1  H24A 5757   5.601   2.908   4.311  0.0382  0.4340  0.6174
   62CHL1  H24B 5758   5.739   2.800   4.355 -1.2929 -0.7011  0.7785
   62CHL1   C25 5759   5.716   2.993   4.472  0.4234 -0.0444 -0.4469
   62CHL1   H25 5760   5.824   3.013   4.491  0.5913 -0.6208 -0.7717
   62CHL1   C26 5761   5.650   3.137   4.452 -0.7255 -0.0443  0.0711
   62CHL1  H26A 5762   5.543   3.128   4.425 -1.1649  1.5046  1.1953
   62CHL1  H26B 5763   5.652   3.203   4.541 -2.2286  0.3393 -0.1590
   62CHL1  H26C 5764   5.699   3.198   4.373 -0.4279  0.4454  0.6297
   62CHL1   C27 5765   5.668   2.924   4.600 -0.1182 -0.2596 -0.2061
   62CHL1  H27A 5766   5.741   2.843   4.621 -2.0230 -1.9803  0.0849
   62CHL1  H27B 5767   5.655   3.002   4.677 -0.2079  0.7220 -1.1897
   62CHL1  H27C 5768   5.569   2.877   4.579  0.0918 -0.3861 -0.9587
   63CHL1    C3 5769   2.206   0.422   3.369 -0.5560 -0.6088  0.2556
   63CHL1    H3 5770   2.299   0.473   3.403 -1.4720  0.7337  0.8595
   63CHL1    O3 5771   2.201   0.417   3.223 -0.2810  0.2913  0.2483
   63CHL1   H3' 5772   2.120   0.372   3.197 -0.2082  0.1027  0.3406
   63CHL1    C4 5773   2.217   0.278   3.429 -0.2726 -0.5549  0.7099
   63CHL1   H4A 5774   2.137   0.214   3.384 -1.0485  2.1835 -2.1469
   63CHL1   H4B 5775   2.313   0.234   3.396  0.1166  1.1410 -0.5123
   63CHL1    C5 5776   2.202   0.270   3.576  0.0077  0.2381  0.0232
   63CHL1    C6 5777   2.285   0.200   3.660 -0.3097 -0.3351 -0.1214
   63CHL1    H6 5778   2.379   0.168   3.614  0.2175  1.9532 -0.7608
   63CHL1    C7 5779   2.275   0.181   3.810  1.3004 -0.1291  0.1160
   63CHL1   H7A 5780   2.277   0.072   3.831  2.8068 -0.1445  0.0158
   63CHL1   H7B 5781   2.362   0.231   3.857  0.5252  0.7332  0.6627
   63CHL1    C8 5782   2.144   0.245   3.878  0.5232 -0.0662 -0.2576
   63CHL1    H8 5783   2.071   0.161   3.874  3.0228 -2.3251 -1.3675
   63CHL1   C14 5784   2.169   0.290   4.025  0.2234  0.1624  0.1207
   63CHL1   H14 5785   2.254   0.361   4.016  0.6266 -0.2806  0.3711
   63CHL1   C15 5786   2.229   0.186   4.118  0.6434 -0.4507  0.8236
   63CHL1  H15A 5787   2.181   0.088   4.101  0.9870 -0.4106 -0.5020
   63CHL1  H15B 5788   2.337   0.160   4.108  0.4167 -0.4715 -3.1897
   63CHL1   C16 5789   2.191   0.239   4.258 -0.2738  0.1132 -0.3345
   63CHL1  H16A 5790   2.114   0.172   4.300 -0.4229  1.1171  1.0793
   63CHL1  H16B 5791   2.276   0.253   4.328 -0.9020  0.0742  0.4471
   63CHL1   C17 5792   2.120   0.375   4.230  0.4199 -0.3523  0.3741
   63CHL1   H17 5793   2.206   0.444   4.217  2.0420 -2.2689  0.3813
   63CHL1   C13 5794   2.053   0.359   4.094  0.2276 -0.7503 -0.5578
   63CHL1   C18 5795   1.931   0.260   4.104  0.2995 -0.0189  0.1094
   63CHL1  H18A 5796   1.952   0.165   4.157  0.1611 -0.2143 -0.1871
   63CHL1  H18B 5797   1.839   0.304   4.148 -0.1187 -0.5475 -0.2216
   63CHL1  H18C 5798   1.912   0.215   4.004 -0.1514 -1.2995  0.7423
   63CHL1   C12 5799   2.014   0.480   4.005 -0.6299  0.1433  0.8343
   63CHL1  H12A 5800   1.942   0.557   4.041 -2.1594 -1.8648  2.2255
   63CHL1  H12B 5801   2.113   0.530   4.011  0.5040 -2.1156  1.8568
   63CHL1   C11 5802   1.983   0.434   3.862 -0.0529 -0.6048  0.2776
   63CHL1  H11A 5803   1.893   0.370   3.866  0.0854 -0.8624 -0.4729
   63CHL1  H11B 5804   1.956   0.533   3.818  0.1472  0.0551  1.5882
   63CHL1    C9 5805   2.098   0.368   3.796  0.6772 -0.0249 -0.1820
   63CHL1    H9 5806   2.186   0.434   3.810 -0.3383  1.0745  1.4724
   63CHL1   C10 5807   2.090   0.348   3.637 -0.4197  0.9609 -0.0850
   63CHL1   C19 5808   1.961   0.268   3.618  0.8143  0.6090  0.6229
   63CHL1  H19A 5809   1.957   0.181   3.688 -1.9382  0.8223  0.8442
   63CHL1  H19B 5810   1.873   0.336   3.623 -0.9300 -1.4659 -0.1744
   63CHL1  H19C 5811   1.958   0.215   3.520  0.1782  3.7663 -1.1844
   63CHL1    C1 5812   2.073   0.493   3.573  0.0049 -0.4560 -0.3245
   63CHL1   H1A 5813   1.975   0.533   3.604 -0.1191 -0.2281 -0.9934
   63CHL1   H1B 5814   2.149   0.566   3.608 -0.8579  0.8350 -1.0843
   63CHL1    C2 5815   2.082   0.498   3.418 -1.0129  0.3131 -0.2802
   63CHL1   H2A 5816   2.083   0.606   3.391 -0.1167 -0.2642 -2.8516
   63CHL1   H2B 5817   1.987   0.467   3.370 -0.0758 -2.8312 -0.3114
   63CHL1   C20 5818   2.031   0.426   4.341  0.0464 -0.1550 -0.4974
   63CHL1   H20 5819   1.928   0.392   4.319  0.1574 -2.6963  2.3525
   63CHL1   C21 5820   2.041   0.582   4.324 -0.2444  0.1997 -0.6696
   63CHL1  H21A 5821   2.135   0.614   4.375 -0.3663 -2.0342  1.1474
   63CHL1  H21B 5822   1.962   0.634   4.383 -2.0384 -3.1226  0.0763
   63CHL1  H21C 5823   2.035   0.614   4.218  0.5758  0.8346 -0.5370
   63CHL1   C22 5824   2.068   0.388   4.486 -0.3642  0.3863  0.3375
   63CHL1  H22A 5825   2.087   0.279   4.498  2.2313  0.9064  1.8772
   63CHL1  H22B 5826   2.157   0.442   4.525 -1.5106 -0.8079  5.1807
   63CHL1   C23 5827   1.951   0.406   4.587 -0.1220  0.6015 -0.3345
   63CHL1  H23A 5828   1.909   0.507   4.606  1.3747  0.7615  2.5976
   63CHL1  H23B 5829   1.869   0.335   4.565 -1.1901  0.3995  3.6544
   63CHL1   C24 5830   1.994   0.359   4.727 -0.2523  0.0905 -0.0795
   63CHL1  H24A 5831   2.020   0.251   4.723  0.7084  0.1682  2.2734
   63CHL1  H24B 5832   2.086   0.419   4.747  0.4654 -1.0581  0.1704
   63CHL1   C25 5833   1.886   0.373   4.839 -0.6767 -0.0074  0.1454
   63CHL1   H25 5834   1.865   0.482   4.847 -2.8750 -0.4264  0.7343
   63CHL1   C26 5835   1.756   0.291   4.818 -0.1926  0.4952 -0.1487
   63CHL1  H26A 5836   1.696   0.310   4.909  1.8614 -1.2260  1.6638
   63CHL1  H26B 5837   1.702   0.321   4.725 -0.2175 -0.9052 -0.6108
   63CHL1  H26C 5838   1.781   0.183   4.827  2.2754  1.0188 -0.0840
   63CHL1   C27 5839   1.948   0.340   4.975  0.2260 -0.6263 -1.4066
   63CHL1  H27A 5840   1.859   0.339   5.041  1.8490  0.0464  0.9108
   63CHL1  H27B 5841   1.997   0.240   4.973  1.6239 -0.0475  0.5309
   63CHL1  H27C 5842   2.033   0.405   5.004  0.3426 -0.2023 -2.6431
   64CHL1    C3 5843   6.060   5.394   3.528 -0.4527 -0.0745  0.4342
   64CHL1    H3 5844   5.992   5.308   3.536  0.2685 -0.9211 -1.6559
   64CHL1    O3 5845   6.072   5.428   3.391  0.2483 -0.2399  0.3575
   64CHL1   H3' 5846   6.126   5.506   3.380 -0.4968  0.0722 -1.4512
   64CHL1    C4 5847   6.023   5.516   3.603  0.6145 -0.1257 -0.4643
   64CHL1   H4A 5848   6.100   5.593   3.580  0.0125  0.1496 -1.6981
   64CHL1   H4B 5849   5.927   5.554   3.561 -0.1172 -2.5089 -1.1467
   64CHL1    C5 5850   6.009   5.479   3.747 -0.1078 -0.0280 -0.5762
   64CHL1    C6 5851   5.900   5.501   3.824  0.0214  0.1058  0.3140
   64CHL1    H6 5852   5.812   5.550   3.780  0.9097  0.6174 -0.9665
   64CHL1    C7 5853   5.885   5.464   3.965  0.1773  0.1913  0.0096
   64CHL1   H7A 5854   5.830   5.548   4.013 -1.3600 -0.5111 -0.4408
   64CHL1   H7B 5855   5.820   5.374   3.974 -0.4813  0.7546  1.0822
   64CHL1    C8 5856   6.024   5.445   4.038  0.4490  0.1911  0.2103
   64CHL1    H8 5857   6.068   5.545   4.059  1.1166 -0.2709  1.0752
   64CHL1   C14 5858   6.004   5.375   4.172  0.2473  0.0195 -0.2535
   64CHL1   H14 5859   5.966   5.273   4.149  3.6284 -1.4658  0.1666
   64CHL1   C15 5860   5.905   5.450   4.269 -0.0683  0.6887 -0.5435
   64CHL1  H15A 5861   5.932   5.556   4.288  4.4186 -0.1742 -0.9477
   64CHL1  H15B 5862   5.798   5.438   4.242 -0.6559 -2.4330  2.4694
   64CHL1   C16 5863   5.937   5.378   4.402 -0.4520  0.0558 -0.2797
   64CHL1  H16A 5864   5.957   5.451   4.483  0.7955 -2.1965  1.5739
   64CHL1  H16B 5865   5.866   5.301   4.440 -0.0428  0.4861  1.4460
   64CHL1   C17 5866   6.074   5.303   4.382  0.0358 -0.4372 -0.3866
   64CHL1   H17 5867   6.039   5.199   4.363 -1.2671 -0.0903 -0.0140
   64CHL1   C13 5868   6.129   5.351   4.247  0.6273 -0.5607 -0.3673
   64CHL1   C18 5869   6.195   5.486   4.274  0.2591  0.2168  0.5559
   64CHL1  H18A 5870   6.197   5.552   4.185 -0.2778  1.1975  1.2460
   64CHL1  H18B 5871   6.143   5.534   4.360  1.6784  0.5611  1.2469
   64CHL1  H18C 5872   6.302   5.478   4.303  0.2387  0.0150  0.5787
   64CHL1   C12 5873   6.213   5.261   4.162 -0.5507 -0.3167  0.5901
   64CHL1  H12A 5874   6.317   5.245   4.196 -0.3797  0.9127  0.6924
   64CHL1  H12B 5875   6.163   5.162   4.156 -0.9445 -0.0977  0.1612
   64CHL1   C11 5876   6.247   5.318   4.024 -0.0342  0.4129 -0.2526
   64CHL1  H11A 5877   6.322   5.399   4.030  1.1835 -0.5971 -1.1607
   64CHL1  H11B 5878   6.294   5.234   3.967  1.4969 -0.0753  1.6464
   64CHL1    C9 5879   6.112   5.356   3.950 -1.0205  0.0737  0.4095
   64CHL1    H9 5880   6.053   5.262   3.942 -0.5040 -0.1678 -0.7885
   64CHL1   C10 5881   6.133   5.412   3.808 -0.1578 -0.5554 -0.3129
   64CHL1   C19 5882   6.242   5.526   3.831 -0.4600 -0.0304 -0.6232
   64CHL1  H19A 5883   6.341   5.488   3.862 -1.4802 -2.5078 -0.1161
   64CHL1  H19B 5884   6.255   5.597   3.746 -0.1583  1.3500  0.5459
   64CHL1  H19C 5885   6.204   5.594   3.910 -0.0794  1.3581 -1.6158
   64CHL1    C1 5886   6.185   5.290   3.726 -0.6642 -0.0893  1.0875
   64CHL1   H1A 5887   6.288   5.258   3.752 -0.7185 -2.6360 -1.3384
   64CHL1   H1B 5888   6.124   5.198   3.722  0.6640 -0.9575 -0.9273
   64CHL1    C2 5889   6.188   5.329   3.579  0.1607  0.2367  0.6323
   64CHL1   H2A 5890   6.213   5.243   3.513  1.9680  0.6427  0.7292
   64CHL1   H2B 5891   6.267   5.406   3.563  0.2070  0.1070  0.2362
   64CHL1   C20 5892   6.168   5.312   4.504  0.4862  0.6540 -0.5718
   64CHL1   H20 5893   6.204   5.415   4.525  0.8445  1.0852 -2.9733
   64CHL1   C21 5894   6.296   5.231   4.466 -0.4365  0.1776  0.0974
   64CHL1  H21A 5895   6.355   5.292   4.394 -2.7970  1.7270 -0.6284
   64CHL1  H21B 5896   6.258   5.134   4.427  1.5147 -0.9240  0.8004
   64CHL1  H21C 5897   6.356   5.210   4.557 -0.6534  0.6542  0.3502
   64CHL1   C22 5898   6.103   5.258   4.639 -0.5360 -0.6300  0.1951
   64CHL1  H22A 5899   5.997   5.288   4.653 -0.2177  0.2785  0.7350
   64CHL1  H22B 5900   6.099   5.147   4.636 -1.9031 -0.6290  1.0246
   64CHL1   C23 5901   6.164   5.306   4.775  0.5750  0.7428  0.5005
   64CHL1  H23A 5902   6.275   5.305   4.771  0.6112 -1.4543  0.9787
   64CHL1  H23B 5903   6.130   5.407   4.809 -0.9840  0.6201 -0.6019
   64CHL1   C24 5904   6.132   5.206   4.883  0.1097  0.4141  0.2462
   64CHL1  H24A 5905   6.022   5.192   4.873  0.3892 -2.2028  0.0960
   64CHL1  H24B 5906   6.172   5.104   4.864  0.3488  0.1331  2.0289
   64CHL1   C25 5907   6.158   5.237   5.025 -0.0413  0.4029  0.1604
   64CHL1   H25 5908   6.264   5.267   5.035 -0.0319  1.2270 -1.8964
   64CHL1   C26 5909   6.062   5.341   5.073  0.2142  0.2199  0.7895
   64CHL1  H26A 5910   6.075   5.443   5.032 -0.7087 -1.0356 -2.9585
   64CHL1  H26B 5911   5.954   5.317   5.060  0.1048  0.5420  1.0761
   64CHL1  H26C 5912   6.079   5.347   5.183  2.9304  0.7609  0.3998
   64CHL1   C27 5913   6.147   5.104   5.101 -0.2732  1.1687 -0.3823
   64CHL1  H27A 5914   6.054   5.046   5.086  0.0887  0.6275 -0.5853
   64CHL1  H27B 5915   6.233   5.037   5.078  1.1358  1.6937  2.8383
   64CHL1  H27C 5916   6.161   5.119   5.210  0.6215  1.8428 -0.5684
   65CHL1    C3 5917   4.031   3.410   3.185  0.2069  0.4566 -0.4003
   65CHL1    H3 5918   4.126   3.356   3.205 -0.0066  0.5257  0.8831
   65CHL1    O3 5919   3.998   3.410   3.048 -0.0801 -0.0410  0.9128
   65CHL1   H3' 5920   4.075   3.452   3.008  0.6231 -2.1293 -0.1023
   65CHL1    C4 5921   3.906   3.346   3.256 -0.5252  1.0398  0.0750
   65CHL1   H4A 5922   3.812   3.399   3.231 -0.6870  1.3138  1.2398
   65CHL1   H4B 5923   3.889   3.244   3.215 -1.0669  0.4970  1.5921
   65CHL1    C5 5924   3.927   3.340   3.404 -1.2424 -0.2759  0.0768
   65CHL1    C6 5925   3.936   3.223   3.471  0.3202  0.3325 -0.2367
   65CHL1    H6 5926   3.905   3.136   3.411  0.4564  0.8759 -1.1136
   65CHL1    C7 5927   3.951   3.222   3.619  0.4039  0.8229  0.1088
   65CHL1   H7A 5928   3.882   3.153   3.672  0.6794  0.8994  0.5798
   65CHL1   H7B 5929   4.057   3.197   3.638  0.2919  1.3326  1.5534
   65CHL1    C8 5930   3.930   3.362   3.697  0.5853  0.7359  0.7838
   65CHL1    H8 5931   3.819   3.366   3.688  0.6688  0.0724 -0.9680
   65CHL1   C14 5932   3.974   3.348   3.844  0.3451 -0.1980  0.3724
   65CHL1   H14 5933   4.078   3.312   3.829  0.2593  0.3958 -2.0331
   65CHL1   C15 5934   3.904   3.244   3.928 -0.0387  0.0063  0.8382
   65CHL1  H15A 5935   3.793   3.252   3.924  0.0328  0.8893  0.2567
   65CHL1  H15B 5936   3.946   3.144   3.906 -2.7723 -1.2494  0.9067
   65CHL1   C16 5937   3.945   3.280   4.069 -0.1491  0.0686 -0.0439
   65CHL1  H16A 5938   3.856   3.284   4.137 -2.0133  0.8506 -2.4115
   65CHL1  H16B 5939   4.006   3.203   4.122 -0.0573  1.5292  2.1153
   65CHL1   C17 5940   4.017   3.424   4.064  0.0539  0.1311 -0.8728
   65CHL1   H17 5941   4.125   3.406   4.053  0.5317 -0.6189  3.2925
   65CHL1   C13 5942   3.972   3.477   3.921 -0.7425 -0.0559  0.0472
   65CHL1   C18 5943   3.822   3.528   3.933 -0.7000 -0.1171  0.1620
   65CHL1  H18A 5944   3.813   3.628   3.982  1.2045  0.4509 -0.5536
   65CHL1  H18B 5945   3.779   3.541   3.832  0.0978 -0.5639 -0.2424
   65CHL1  H18C 5946   3.757   3.458   3.990 -1.8086  2.3902  2.2008
   65CHL1   C12 5947   4.069   3.578   3.847 -0.4946  0.1613  0.3290
   65CHL1  H12A 5948   4.063   3.675   3.901  0.1957 -0.8355  2.3047
   65CHL1  H12B 5949   4.172   3.546   3.822 -1.2845 -1.4224 -1.0097
   65CHL1   C11 5950   4.008   3.603   3.702 -0.9634  0.1150  0.8107
   65CHL1  H11A 5951   3.907   3.648   3.716 -1.8569 -1.1180 -1.2785
   65CHL1  H11B 5952   4.077   3.680   3.662 -1.1138 -1.2843 -2.3860
   65CHL1    C9 5953   4.003   3.470   3.618 -0.1893 -0.0099 -0.8456
   65CHL1    H9 5954   4.109   3.436   3.620  0.8060  2.7644  1.2757
   65CHL1   C10 5955   3.956   3.483   3.468 -0.0544  0.3997 -0.3913
   65CHL1   C19 5956   3.832   3.564   3.470 -0.2198  0.7878  0.0756
   65CHL1  H19A 5957   3.775   3.561   3.375 -2.0709 -1.2794  1.1583
   65CHL1  H19B 5958   3.768   3.538   3.557 -0.9187 -2.6935 -1.3174
   65CHL1  H19C 5959   3.848   3.673   3.488  0.7282  0.6561  0.1112
   65CHL1    C1 5960   4.059   3.559   3.383 -0.5584  0.2520  0.3458
   65CHL1   H1A 5961   4.063   3.668   3.406 -0.7290  0.2226  0.5167
   65CHL1   H1B 5962   4.155   3.504   3.398  0.3409  0.4610 -3.5529
   65CHL1    C2 5963   4.041   3.556   3.234  0.5011  0.0492  0.1075
   65CHL1   H2A 5964   4.137   3.589   3.189  2.8721 -2.1899  3.0949
   65CHL1   H2B 5965   3.951   3.618   3.212  0.7339  0.2075 -0.4020
   65CHL1   C20 5966   4.000   3.510   4.189 -0.0796  1.0856  0.3002
   65CHL1   H20 5967   3.894   3.538   4.209 -0.2703  0.2698  0.4811
   65CHL1   C21 5968   4.063   3.647   4.165  0.0686 -0.1186 -0.0867
   65CHL1  H21A 5969   4.162   3.643   4.114 -0.8132  0.9422 -1.9699
   65CHL1  H21B 5970   4.073   3.706   4.259  0.0734 -0.3719  0.0731
   65CHL1  H21C 5971   4.009   3.718   4.099 -0.6887 -0.8321 -0.2435
   65CHL1   C22 5972   4.056   3.430   4.318 -0.0341  0.1598  0.6943
   65CHL1  H22A 5973   4.030   3.322   4.312  0.8211 -0.0281  0.2900
   65CHL1  H22B 5974   4.167   3.435   4.314 -0.1063  0.6890 -1.5843
   65CHL1   C23 5975   4.017   3.492   4.453 -0.1083 -0.3010  0.1764
   65CHL1  H23A 5976   4.069   3.588   4.473  0.7822 -0.5990 -0.5880
   65CHL1  H23B 5977   3.907   3.506   4.448  0.0273  0.4314 -1.3254
   65CHL1   C24 5978   4.056   3.396   4.567  0.1684  0.4199 -0.0598
   65CHL1  H24A 5979   4.004   3.300   4.549  0.1059  0.6475 -1.1731
   65CHL1  H24B 5980   4.164   3.369   4.566 -0.1746 -1.4714  2.4843
   65CHL1   C25 5981   4.031   3.445   4.713 -0.0425 -0.1966 -0.4876
   65CHL1   H25 5982   4.104   3.529   4.719  0.3555 -0.4992 -1.0191
   65CHL1   C26 5983   3.881   3.493   4.736  0.2689  0.9169  0.3599
   65CHL1  H26A 5984   3.863   3.534   4.837 -1.0943 -0.3563  0.6474
   65CHL1  H26B 5985   3.849   3.566   4.658  0.0655 -0.8742 -1.3106
   65CHL1  H26C 5986   3.816   3.403   4.733 -0.0694  1.1739 -1.1340
   65CHL1   C27 5987   4.059   3.344   4.824  0.3023 -0.4963  0.0799
   65CHL1  H27A 5988   4.163   3.307   4.810  0.7105  0.7337 -0.2652
   65CHL1  H27B 5989   4.052   3.401   4.919  1.4977  1.9113 -1.1566
   65CHL1  H27C 5990   3.980   3.268   4.837 -1.2322  1.2909  1.9373
   66CHL1    C3 5991   3.792   4.654   3.115  0.5134  1.3992  0.4212
   66CHL1    H3 5992   3.712   4.724   3.147 -0.6769  1.8587 -3.1350
   66CHL1    O3 5993   3.773   4.635   2.972  0.5013 -0.1874  0.5848
   66CHL1   H3' 5994   3.834   4.567   2.943 -0.5344 -0.8342 -0.1268
   66CHL1    C4 5995   3.933   4.703   3.145  0.9547 -0.0391  0.0428
   66CHL1   H4A 5996   4.004   4.624   3.114  1.8162  0.2937  1.1180
   66CHL1   H4B 5997   3.958   4.793   3.085  2.6453  1.0739  2.2745
   66CHL1    C5 5998   3.947   4.729   3.288 -0.7833 -0.4856  0.2265
   66CHL1    C6 5999   3.978   4.849   3.337  0.5416  0.6762  0.2834
   66CHL1    H6 6000   3.989   4.936   3.270 -1.1788  0.6294 -0.1088
   66CHL1    C7 6001   4.017   4.871   3.483 -0.3280  0.6859 -0.2570
   66CHL1   H7A 6002   4.118   4.916   3.494  0.3339 -0.2226 -2.1666
   66CHL1   H7B 6003   3.940   4.934   3.534  1.0597  1.2063  1.3035
   66CHL1    C8 6004   4.016   4.743   3.566  0.2064  0.5065 -0.0199
   66CHL1    H8 6005   4.120   4.704   3.556  0.0032 -0.5536  1.5779
   66CHL1   C14 6006   4.008   4.774   3.719  0.0572  0.2537 -0.6465
   66CHL1   H14 6007   3.918   4.839   3.721  0.8883  1.4705  1.9689
   66CHL1   C15 6008   4.111   4.869   3.787 -0.0494  0.0065  0.5564
   66CHL1  H15A 6009   4.212   4.859   3.744 -0.6531 -1.2701 -0.6417
   66CHL1  H15B 6010   4.073   4.973   3.790 -3.0546 -0.9032 -1.5215
   66CHL1   C16 6011   4.118   4.825   3.934  0.0504 -0.2199  0.4993
   66CHL1  H16A 6012   4.213   4.770   3.950  0.0277 -0.1368  0.9345
   66CHL1  H16B 6013   4.125   4.902   4.013  1.4818  1.9109 -1.5913
   66CHL1   C17 6014   3.996   4.727   3.948  0.1281 -0.4559  0.3034
   66CHL1   H17 6015   3.899   4.781   3.950  0.9851  1.1611  0.9156
   66CHL1   C13 6016   3.991   4.654   3.816  0.0107  0.5077  0.7812
   66CHL1   C18 6017   4.109   4.564   3.800 -0.5926  0.3351 -0.8445
   66CHL1  H18A 6018   4.205   4.600   3.841  0.4356 -1.9842 -1.0521
   66CHL1  H18B 6019   4.104   4.471   3.862  0.3389  1.5038  1.0846
   66CHL1  H18C 6020   4.135   4.529   3.698  0.2349  0.1564 -0.5774
   66CHL1   C12 6021   3.865   4.577   3.767 -0.3866 -0.8818 -0.1365
   66CHL1  H12A 6022   3.838   4.487   3.826  1.0423 -1.5010 -0.3701
   66CHL1  H12B 6023   3.773   4.639   3.765 -0.3736 -0.8301  0.5600
   66CHL1   C11 6024   3.886   4.525   3.624 -0.3826 -0.0217 -0.0345
   66CHL1  H11A 6025   3.969   4.453   3.636 -0.1448  0.1761 -0.4719
   66CHL1  H11B 6026   3.797   4.466   3.590 -0.2999 -1.1341  1.5532
   66CHL1    C9 6027   3.904   4.648   3.522 -0.0267  0.5110 -0.3867
   66CHL1    H9 6028   3.807   4.702   3.529 -0.7661 -0.8390  0.3074
   66CHL1   C10 6029   3.918   4.601   3.375  0.4895 -0.5230 -0.1041
   66CHL1   C19 6030   4.032   4.493   3.363 -0.3027  0.5284  0.6630
   66CHL1  H19A 6031   4.015   4.403   3.427  0.7514  1.7518  2.7753
   66CHL1  H19B 6032   4.056   4.472   3.257  1.0116  0.1025  1.0200
   66CHL1  H19C 6033   4.116   4.550   3.409  0.0045  2.0125 -1.5509
   66CHL1    C1 6034   3.782   4.533   3.329 -0.7265 -0.4259  0.5732
   66CHL1   H1A 6035   3.775   4.430   3.372  1.4660 -0.1669  1.6914
   66CHL1   H1B 6036   3.696   4.596   3.361  0.0854  0.8197  0.3607
   66CHL1    C2 6037   3.777   4.515   3.179  0.4864 -0.2595 -0.2857
   66CHL1   H2A 6038   3.686   4.456   3.155  0.4749 -0.1231 -0.5687
   66CHL1   H2B 6039   3.861   4.450   3.146 -0.0404 -1.5466  0.8094
   66CHL1   C20 6040   3.998   4.640   4.071  0.3581 -0.3267  0.1657
   66CHL1   H20 6041   4.091   4.580   4.063  0.6559  0.2870 -1.3750
   66CHL1   C21 6042   3.875   4.545   4.081  0.4713 -0.8703  0.4385
   66CHL1  H21A 6043   3.783   4.596   4.044  0.9135 -0.1012  0.3852
   66CHL1  H21B 6044   3.862   4.510   4.185 -0.1757 -0.0284  0.6493
   66CHL1  H21C 6045   3.898   4.452   4.024  0.4884  0.9182 -2.6841
   66CHL1   C22 6046   4.002   4.712   4.201 -0.6678  0.5322 -0.3818
   66CHL1  H22A 6047   4.075   4.796   4.196 -0.3099  0.3786  1.4805
   66CHL1  H22B 6048   3.903   4.761   4.213 -0.2211  1.2250  0.6136
   66CHL1   C23 6049   4.039   4.625   4.333 -0.4899 -0.3059  0.2674
   66CHL1  H23A 6050   3.960   4.550   4.353 -0.9106 -0.5822 -2.0784
   66CHL1  H23B 6051   4.134   4.571   4.314 -0.2672  0.0826  0.2632
   66CHL1   C24 6052   4.064   4.718   4.465 -0.4228 -0.2531  0.1649
   66CHL1  H24A 6053   4.158   4.679   4.509 -0.8040 -0.1394  1.0974
   66CHL1  H24B 6054   4.075   4.821   4.426  0.4718 -0.9865 -1.6832
   66CHL1   C25 6055   3.955   4.727   4.570 -0.1919  0.5297 -0.2667
   66CHL1   H25 6056   3.938   4.630   4.621 -2.5756  0.5035 -0.9445
   66CHL1   C26 6057   3.989   4.838   4.669 -0.5397  0.6383 -0.6161
   66CHL1  H26A 6058   3.919   4.844   4.756  0.7256  0.5197  0.4342
   66CHL1  H26B 6059   4.093   4.820   4.702 -0.5312  0.6848 -0.6184
   66CHL1  H26C 6060   3.978   4.941   4.628 -0.4119  0.4810 -1.0582
   66CHL1   C27 6061   3.814   4.758   4.506  0.1265 -0.5023  0.3708
   66CHL1  H27A 6062   3.783   4.690   4.424 -0.8757 -0.4869  0.7173
   66CHL1  H27B 6063   3.818   4.861   4.463  0.1145 -0.1156  1.2671
   66CHL1  H27C 6064   3.731   4.751   4.579 -0.6436  1.5134 -0.2314
   67CHL1    C3 6065   6.900   0.513   3.103  0.7763 -0.3566 -0.1033
   67CHL1    H3 6066   6.981   0.586   3.079 -0.1427  1.1476  1.2098
   67CHL1    O3 6067   6.866   0.472   2.970  0.4268 -0.7788  0.0663
   67CHL1   H3' 6068   6.826   0.385   2.979 -2.2350  0.1415 -1.7236
   67CHL1    C4 6069   6.953   0.391   3.179  0.3744  0.4060  0.5203
   67CHL1   H4A 6070   6.880   0.308   3.163  1.4475 -0.4395 -0.0887
   67CHL1   H4B 6071   7.041   0.353   3.124 -0.8110 -1.8760  0.0748
   67CHL1    C5 6072   6.978   0.405   3.327  0.6381 -0.3903 -0.0715
   67CHL1    C6 6073   7.091   0.364   3.390  0.2903 -0.4012 -0.4789
   67CHL1    H6 6074   7.175   0.317   3.337  0.7101 -0.6678  0.3984
   67CHL1    C7 6075   7.112   0.373   3.537 -0.0624  0.3948  0.4006
   67CHL1   H7A 6076   7.163   0.277   3.562  0.9789  0.7153 -0.4173
   67CHL1   H7B 6077   7.178   0.458   3.564 -3.4790  3.2213  0.6534
   67CHL1    C8 6078   6.985   0.397   3.612  0.5279  0.1259  0.0524
   67CHL1    H8 6079   6.939   0.297   3.604 -0.3603  0.5670 -0.5233
   67CHL1   C14 6080   7.015   0.443   3.751 -0.1201  0.3664 -0.0980
   67CHL1   H14 6081   7.066   0.542   3.744 -0.8219  0.6799 -1.0265
   67CHL1   C15 6082   7.106   0.357   3.836  0.3232 -0.1385 -0.5196
   67CHL1  H15A 6083   7.068   0.255   3.816  0.4338 -0.1495 -0.6726
   67CHL1  H15B 6084   7.209   0.377   3.798 -0.2350  1.6724 -1.1688
   67CHL1   C16 6085   7.083   0.391   3.982  0.0040 -0.6962 -0.7900
   67CHL1  H16A 6086   7.068   0.306   4.052 -0.8559 -0.7566 -1.0405
   67CHL1  H16B 6087   7.167   0.451   4.025 -0.0981 -0.0868 -1.4192
   67CHL1   C17 6088   6.956   0.491   3.981 -0.1205  0.5543 -0.4183
   67CHL1   H17 6089   6.989   0.597   3.979  1.8024 -0.0134 -0.2865
   67CHL1   C13 6090   6.897   0.461   3.842 -0.4680  0.6970 -0.0377
   67CHL1   C18 6091   6.800   0.336   3.841 -0.1646 -0.2856 -0.0406
   67CHL1  H18A 6092   6.774   0.305   3.738 -1.7486  0.3291  0.1511
   67CHL1  H18B 6093   6.850   0.249   3.889 -0.3849 -0.1391  0.4580
   67CHL1  H18C 6094   6.704   0.365   3.890 -0.6439 -0.3600 -0.9264
   67CHL1   C12 6095   6.820   0.590   3.781  0.8929 -0.3493 -0.3974
   67CHL1  H12A 6096   6.736   0.634   3.838 -1.1193 -2.6836 -1.4146
   67CHL1  H12B 6097   6.896   0.671   3.780  0.6206 -0.0644  0.6668
   67CHL1   C11 6098   6.784   0.561   3.636  0.8301 -0.0023 -0.4780
   67CHL1  H11A 6099   6.704   0.484   3.641  0.7642  0.1029  0.3260
   67CHL1  H11B 6100   6.736   0.646   3.585 -1.6798 -0.6583  0.6269
   67CHL1    C9 6101   6.899   0.505   3.548  0.6394 -0.2484  0.2613
   67CHL1    H9 6102   6.967   0.592   3.536  0.3621  0.9087  5.2222
   67CHL1   C10 6103   6.855   0.464   3.398  0.1657  0.1285  0.1751
   67CHL1   C19 6104   6.742   0.361   3.405 -0.0433 -0.5372  0.4231
   67CHL1  H19A 6105   6.771   0.278   3.472  1.4346 -0.5742 -0.2151
   67CHL1  H19B 6106   6.649   0.402   3.450 -1.4387 -3.8742  0.8350
   67CHL1  H19C 6107   6.715   0.327   3.302 -0.6883  2.6440 -0.5893
   67CHL1    C1 6108   6.809   0.595   3.322  0.8189  0.2540  0.2708
   67CHL1   H1A 6109   6.718   0.621   3.381 -2.1403 -1.4591 -3.1577
   67CHL1   H1B 6110   6.885   0.675   3.334  1.7827 -0.7748  1.3163
   67CHL1    C2 6111   6.779   0.574   3.171 -0.3729  0.0045  0.0567
   67CHL1   H2A 6112   6.744   0.670   3.127 -1.3598 -0.6736 -0.6844
   67CHL1   H2B 6113   6.692   0.505   3.169  1.2423 -2.1413 -2.0896
   67CHL1   C20 6114   6.871   0.473   4.110  0.0306  0.1645  0.7132
   67CHL1   H20 6115   6.826   0.372   4.112 -2.5126  1.1914 -0.3068
   67CHL1   C21 6116   6.755   0.579   4.116  0.0244  0.1121 -0.0566
   67CHL1  H21A 6117   6.713   0.598   4.217  0.4498 -2.0946  0.5857
   67CHL1  H21B 6118   6.682   0.545   4.039  0.7546 -0.5751 -0.4599
   67CHL1  H21C 6119   6.797   0.673   4.074 -0.3659 -0.6320 -2.2554
   67CHL1   C22 6120   6.949   0.484   4.237 -0.1015 -0.4415 -0.0719
   67CHL1  H22A 6121   6.865   0.481   4.310  1.0746  0.4291  1.3757
   67CHL1  H22B 6122   6.998   0.384   4.244  0.2820 -0.3354 -1.1525
   67CHL1   C23 6123   7.043   0.607   4.269  0.3246  0.1033 -0.3990
   67CHL1  H23A 6124   7.110   0.623   4.182  1.2890  0.6234  0.4145
   67CHL1  H23B 6125   6.974   0.694   4.264 -2.3045 -1.6791  1.7309
   67CHL1   C24 6126   7.115   0.606   4.406  0.5335  0.6161  0.4951
   67CHL1  H24A 6127   7.160   0.706   4.425  1.6083 -0.0001  1.3120
   67CHL1  H24B 6128   7.038   0.571   4.478 -0.3971 -2.0450 -1.6241
   67CHL1   C25 6129   7.221   0.490   4.414 -0.8571 -1.1884 -0.2050
   67CHL1   H25 6130   7.175   0.397   4.374 -0.8805 -1.7791  1.1472
   67CHL1   C26 6131   7.355   0.520   4.333  0.1311  0.0999  0.1397
   67CHL1  H26A 6132   7.324   0.528   4.227  1.4461 -1.8964 -0.4600
   67CHL1  H26B 6133   7.389   0.619   4.369 -2.1989  1.3127 -0.7943
   67CHL1  H26C 6134   7.437   0.445   4.341  0.0097 -0.0733 -0.2279
   67CHL1   C27 6135   7.261   0.479   4.560  0.2560  0.1526 -0.0654
   67CHL1  H27A 6136   7.170   0.454   4.619 -1.6074  2.7471 -1.6011
   67CHL1  H27B 6137   7.334   0.397   4.578 -0.1761  0.2916  2.6343
   67CHL1  H27C 6138   7.298   0.581   4.584 -1.8707  0.8334  0.6095
   68CHL1    C3 6139   5.180   0.877   2.949  0.3086  0.1871 -0.1567
   68CHL1    H3 6140   5.073   0.862   2.974  0.8105 -1.1722  1.3715
   68CHL1    O3 6141   5.198   0.870   2.804 -0.2794  0.0610 -0.2113
   68CHL1   H3' 6142   5.211   0.777   2.784 -1.7488 -0.0214 -0.8991
   68CHL1    C4 6143   5.226   1.011   3.008  0.4221 -0.2123 -0.6025
   68CHL1   H4A 6144   5.335   1.023   2.989  0.0052 -0.4173 -3.6051
   68CHL1   H4B 6145   5.173   1.086   2.946  1.4237 -0.1376 -1.3840
   68CHL1    C5 6146   5.196   1.027   3.149 -0.7031 -0.5521  0.3424
   68CHL1    C6 6147   5.112   1.123   3.191  0.2544  0.0401 -0.0619
   68CHL1    H6 6148   5.054   1.183   3.120  1.0309  0.2548 -0.5335
   68CHL1    C7 6149   5.090   1.154   3.338  0.4568  0.2988  0.2646
   68CHL1   H7A 6150   5.114   1.262   3.351 -0.0807  0.4296  0.1654
   68CHL1   H7B 6151   4.983   1.139   3.360  0.8380 -1.8845  0.8857
   68CHL1    C8 6152   5.182   1.077   3.429 -0.7008  0.1816  0.1004
   68CHL1    H8 6153   5.271   1.143   3.426 -0.8256  0.3710  0.5330
   68CHL1   C14 6154   5.126   1.083   3.578 -0.3382 -0.2660 -0.6743
   68CHL1   H14 6155   5.026   1.037   3.564  0.0129 -0.6814 -2.0449
   68CHL1   C15 6156   5.102   1.220   3.651  0.4268  0.3957  1.0837
   68CHL1  H15A 6157   5.177   1.294   3.616 -0.5563  0.4426 -1.1039
   68CHL1  H15B 6158   5.004   1.261   3.619  0.7553 -0.2723 -0.9552
   68CHL1   C16 6159   5.114   1.191   3.802  0.2095  0.5897  0.2229
   68CHL1  H16A 6160   5.195   1.247   3.852 -0.1681  1.0564  0.3127
   68CHL1  H16B 6161   5.022   1.219   3.858  0.6459 -0.4652  1.5047
   68CHL1   C17 6162   5.139   1.040   3.815 -0.1041 -0.9509  0.2675
   68CHL1   H17 6163   5.036   1.002   3.802 -0.9198  0.5860  1.9321
   68CHL1   C13 6164   5.209   1.009   3.677  0.3262 -0.6022  0.0870
   68CHL1   C18 6165   5.346   1.076   3.698 -0.2374  0.6381 -0.3331
   68CHL1  H18A 6166   5.413   1.023   3.770 -0.7159 -0.1014 -0.4225
   68CHL1  H18B 6167   5.398   1.068   3.600 -0.0379  2.3680 -0.3965
   68CHL1  H18C 6168   5.347   1.183   3.729 -0.4895  0.8345 -0.9930
   68CHL1   C12 6169   5.211   0.862   3.630  0.4368  0.5871  0.1086
   68CHL1  H12A 6170   5.277   0.804   3.699  0.2567 -1.6976 -1.5012
   68CHL1  H12B 6171   5.105   0.830   3.635  0.1915  0.9080 -2.2372
   68CHL1   C11 6172   5.272   0.840   3.495  0.1114  0.3399 -0.4225
   68CHL1  H11A 6173   5.383   0.850   3.501  0.3893 -2.5568  0.7043
   68CHL1  H11B 6174   5.262   0.734   3.464  3.8714 -0.4395  0.5056
   68CHL1    C9 6175   5.198   0.934   3.387 -0.3889  0.2773 -0.6579
   68CHL1    H9 6176   5.094   0.896   3.384  0.1041 -1.1057 -2.8003
   68CHL1   C10 6177   5.261   0.924   3.243  0.5673 -0.8287  0.1831
   68CHL1   C19 6178   5.409   0.964   3.247 -0.2444  0.8979 -0.2453
   68CHL1  H19A 6179   5.457   0.905   3.328 -1.5057  2.2932  1.6411
   68CHL1  H19B 6180   5.467   0.943   3.155  0.2322  1.6097 -0.1132
   68CHL1  H19C 6181   5.423   1.072   3.268  0.8666  0.6918  0.0943
   68CHL1    C1 6182   5.234   0.783   3.181 -0.2909  0.7955  0.6723
   68CHL1   H1A 6183   5.288   0.705   3.239 -0.9979 -0.7116 -0.6268
   68CHL1   H1B 6184   5.126   0.764   3.199  0.0335 -2.5890 -0.2814
   68CHL1    C2 6185   5.247   0.768   3.027 -0.1735  0.1481  0.2009
   68CHL1   H2A 6186   5.205   0.671   2.993 -0.2092  0.8277 -1.8862
   68CHL1   H2B 6187   5.356   0.771   3.006  0.3717  0.8104  2.8344
   68CHL1   C20 6188   5.196   0.982   3.950 -0.2151 -0.4253 -0.0195
   68CHL1   H20 6189   5.302   0.960   3.926 -0.3066 -0.0118 -0.8390
   68CHL1   C21 6190   5.123   0.850   3.968 -0.0458 -0.5617  0.6017
   68CHL1  H21A 6191   5.134   0.776   3.886  0.8981  0.5435 -0.2961
   68CHL1  H21B 6192   5.013   0.863   3.979 -0.1938 -0.4106 -0.8983
   68CHL1  H21C 6193   5.161   0.816   4.067  2.1740  2.1546  0.8090
   68CHL1   C22 6194   5.179   1.078   4.072 -0.6971 -0.1755  0.5593
   68CHL1  H22A 6195   5.241   1.169   4.056 -1.6669  0.5823  0.9979
   68CHL1  H22B 6196   5.070   1.098   4.082 -0.7621  0.0633 -0.5553
   68CHL1   C23 6197   5.230   1.025   4.205 -0.0948 -0.0363 -0.2148
   68CHL1  H23A 6198   5.159   0.950   4.247 -2.2828  1.7156 -0.5425
   68CHL1  H23B 6199   5.328   0.975   4.199 -1.1793 -2.2538 -0.3340
   68CHL1   C24 6200   5.239   1.148   4.295 -0.6292 -0.1675 -0.5663
   68CHL1  H24A 6201   5.311   1.226   4.262 -0.4666  0.9302  2.1113
   68CHL1  H24B 6202   5.144   1.202   4.316  1.5095  3.2903  1.2443
   68CHL1   C25 6203   5.269   1.114   4.449 -0.0457 -0.2501  0.5853
   68CHL1   H25 6204   5.199   1.030   4.467  1.4660 -1.4960  0.8335
   68CHL1   C26 6205   5.411   1.057   4.456  0.1386  0.4526  0.2405
   68CHL1  H26A 6206   5.413   0.959   4.403 -2.9207  0.7236 -0.5502
   68CHL1  H26B 6207   5.490   1.122   4.413 -0.4034  0.1565 -1.2675
   68CHL1  H26C 6208   5.436   1.036   4.562  0.0358 -0.3126  0.1224
   68CHL1   C27 6209   5.244   1.237   4.546  0.4146  0.9259  0.0951
   68CHL1  H27A 6210   5.142   1.278   4.532 -0.7391 -1.6264  0.5069
   68CHL1  H27B 6211   5.265   1.207   4.651 -1.1186  2.3016  0.8353
   68CHL1  H27C 6212   5.324   1.313   4.530 -0.2900  1.7641  0.4271
   69CHL1    C3 6213   2.342   0.804   3.350  0.1275  1.0875 -0.0004
   69CHL1    H3 6214   2.321   0.696   3.368 -1.8791  1.5846  0.9813
   69CHL1    O3 6215   2.417   0.810   3.228 -0.0738  0.0372 -0.2853
   69CHL1   H3' 6216   2.443   0.902   3.226  0.5032 -0.1337 -1.1343
   69CHL1    C4 6217   2.220   0.888   3.344 -0.2342 -0.1889 -0.4279
   69CHL1   H4A 6218   2.257   0.987   3.309 -0.5821 -0.2766 -1.0607
   69CHL1   H4B 6219   2.159   0.850   3.259  0.5819 -1.4019 -0.4906
   69CHL1    C5 6220   2.149   0.908   3.471 -0.3938 -0.1612  0.1455
   69CHL1    C6 6221   2.022   0.874   3.478  0.2535  0.1329 -0.4379
   69CHL1    H6 6222   1.977   0.827   3.389 -1.7409  0.5631  0.2807
   69CHL1    C7 6223   1.947   0.876   3.605 -0.1335  0.4398 -0.2922
   69CHL1   H7A 6224   1.852   0.928   3.579 -1.4353 -1.0526  1.1713
   69CHL1   H7B 6225   1.921   0.772   3.636 -0.6750  0.3577 -0.9796
   69CHL1    C8 6226   2.012   0.951   3.725  0.2502 -0.5238  0.0737
   69CHL1    H8 6227   1.997   1.059   3.705  2.7015 -0.0045  0.7706
   69CHL1   C14 6228   1.934   0.916   3.855 -0.0641 -0.2697 -0.2305
   69CHL1   H14 6229   1.948   0.806   3.865  1.1980 -0.1352 -0.3504
   69CHL1   C15 6230   1.784   0.934   3.865 -0.0408 -0.5507  0.1042
   69CHL1  H15A 6231   1.757   1.028   3.813 -0.4498 -1.6025 -1.6814
   69CHL1  H15B 6232   1.728   0.857   3.807 -3.1186 -0.9532  3.3038
   69CHL1   C16 6233   1.756   0.924   4.014  0.0733  0.0762  0.1233
   69CHL1  H16A 6234   1.693   1.010   4.044 -0.4874 -0.3166  0.0706
   69CHL1  H16B 6235   1.699   0.832   4.037 -0.6051  0.5492  0.3798
   69CHL1   C17 6236   1.897   0.920   4.078 -0.5485 -0.4401 -1.1961
   69CHL1   H17 6237   1.921   0.811   4.080  2.2353  0.0750 -1.4566
   69CHL1   C13 6238   1.992   0.985   3.978 -0.2436 -0.1805  1.0515
   69CHL1   C18 6239   1.977   1.137   3.975  0.0440  0.4455  0.2869
   69CHL1  H18A 6240   1.999   1.181   4.074  1.7206 -1.0736  0.6398
   69CHL1  H18B 6241   2.044   1.181   3.897  1.8135 -0.3097  1.3234
   69CHL1  H18C 6242   1.871   1.167   3.959 -0.3168  1.7795  4.2891
   69CHL1   C12 6243   2.142   0.930   3.983 -0.0601  0.2560 -0.3479
   69CHL1  H12A 6244   2.193   0.985   4.064  1.3562 -1.4352 -0.0293
   69CHL1  H12B 6245   2.147   0.821   4.001  2.7064  0.0339 -2.0031
   69CHL1   C11 6246   2.224   0.972   3.858 -1.1740 -0.7582  0.1108
   69CHL1  H11A 6247   2.236   1.083   3.851  1.1096 -0.9966 -0.4891
   69CHL1  H11B 6248   2.326   0.934   3.877 -0.3182  2.0201  1.7577
   69CHL1    C9 6249   2.158   0.921   3.734  0.6509 -0.0834  0.6588
   69CHL1    H9 6250   2.165   0.810   3.742  0.4381 -0.0626  1.1105
   69CHL1   C10 6251   2.232   0.948   3.593  0.2589 -0.6676  0.2290
   69CHL1   C19 6252   2.272   1.094   3.583 -0.3157 -0.2913  0.6121
   69CHL1  H19A 6253   2.323   1.105   3.485 -1.7042 -1.2730 -0.2536
   69CHL1  H19B 6254   2.197   1.176   3.586  0.9292  1.0358 -1.4966
   69CHL1  H19C 6255   2.362   1.120   3.643  0.5086 -2.2078  0.2830
   69CHL1    C1 6256   2.356   0.858   3.597  0.4795 -0.1844 -0.2012
   69CHL1   H1A 6257   2.420   0.883   3.684 -2.1601 -1.4950  2.2932
   69CHL1   H1B 6258   2.332   0.753   3.626 -0.1789 -0.9401 -3.0649
   69CHL1    C2 6259   2.436   0.852   3.468  0.6750 -0.0489  0.9786
   69CHL1   H2A 6260   2.518   0.778   3.460  1.7413  1.2083 -0.0874
   69CHL1   H2B 6261   2.474   0.954   3.447 -1.4696  0.5751 -0.1709
   69CHL1   C20 6262   1.887   0.975   4.224  0.3524  0.2743 -0.3832
   69CHL1   H20 6263   1.834   1.071   4.208 -3.0597 -0.9931  2.0573
   69CHL1   C21 6264   2.022   0.977   4.287  0.4846 -0.3744 -0.7423
   69CHL1  H21A 6265   2.025   0.999   4.395 -0.7106 -0.8945 -0.5806
   69CHL1  H21B 6266   2.088   1.053   4.241 -1.5960  1.5900 -0.6543
   69CHL1  H21C 6267   2.071   0.878   4.278 -0.2222 -1.0340  1.7980
   69CHL1   C22 6268   1.789   0.898   4.319  0.4655 -0.4035  0.5236
   69CHL1  H22A 6269   1.702   0.863   4.259  1.0884 -0.5687 -0.3005
   69CHL1  H22B 6270   1.843   0.808   4.358  1.3001 -0.4310 -0.6410
   69CHL1   C23 6271   1.728   0.993   4.418 -0.1516  0.3413 -0.7409
   69CHL1  H23A 6272   1.806   1.047   4.477 -0.0150 -0.3768 -0.2372
   69CHL1  H23B 6273   1.679   1.071   4.357 -2.5423 -0.1639  0.4193
   69CHL1   C24 6274   1.627   0.924   4.515  0.0307 -0.1130  0.2140
   69CHL1  H24A 6275   1.537   0.887   4.461 -0.6347  1.4584  0.1819
   69CHL1  H24B 6276   1.671   0.842   4.575  2.2648  0.6962 -0.2175
   69CHL1   C25 6277   1.562   1.024   4.604 -0.3267  0.4421  0.1614
   69CHL1   H25 6278   1.646   1.076   4.654 -0.3895  0.4377  0.2704
   69CHL1   C26 6279   1.475   1.123   4.531 -0.2053  0.9294  0.6612
   69CHL1  H26A 6280   1.387   1.073   4.485  1.5597 -0.3014 -1.6045
   69CHL1  H26B 6281   1.440   1.198   4.605  1.8730  3.0906 -0.4170
   69CHL1  H26C 6282   1.529   1.181   4.453  1.0669 -2.5123 -1.2337
   69CHL1   C27 6283   1.487   0.957   4.724  0.1694 -0.5087  0.1240
   69CHL1  H27A 6284   1.552   0.881   4.772  0.9044 -2.1368 -3.1933
   69CHL1  H27B 6285   1.462   1.032   4.802  2.5035  1.4825 -0.8961
   69CHL1  H27C 6286   1.392   0.912   4.688  1.7746 -1.3459 -3.5665
   70CHL1    C3 6287   0.367   2.462   3.044 -0.3704 -0.4474  0.2637
   70CHL1    H3 6288   0.295   2.546   3.061  0.0216  0.4437 -2.0420
   70CHL1    O3 6289   0.383   2.438   2.905  0.0737 -0.4132  0.3075
   70CHL1   H3' 6290   0.437   2.360   2.915  0.5074 -0.0866  0.5747
   70CHL1    C4 6291   0.508   2.485   3.112 -0.7449 -0.1235 -0.7523
   70CHL1   H4A 6292   0.567   2.393   3.092 -1.5331 -0.6537 -0.6871
   70CHL1   H4B 6293   0.564   2.571   3.070 -0.4734  1.2521  2.1193
   70CHL1    C5 6294   0.491   2.497   3.268  0.3401  0.0939 -0.3086
   70CHL1    C6 6295   0.534   2.607   3.329  0.8282 -0.8699 -0.6280
   70CHL1    H6 6296   0.576   2.692   3.273 -0.1785  0.6511  0.8299
   70CHL1    C7 6297   0.507   2.626   3.477  0.1443 -0.2177  0.2759
   70CHL1   H7A 6298   0.601   2.670   3.517  1.9073 -1.3515 -2.3189
   70CHL1   H7B 6299   0.423   2.697   3.488  1.2474  1.2733 -0.4736
   70CHL1    C8 6300   0.489   2.496   3.554 -0.5392  0.0725  1.3024
   70CHL1    H8 6301   0.584   2.440   3.545  0.9085  1.9713  3.6168
   70CHL1   C14 6302   0.446   2.527   3.695 -0.0400  0.4231  0.1824
   70CHL1   H14 6303   0.342   2.563   3.679 -0.1604  0.4876  1.0630
   70CHL1   C15 6304   0.520   2.638   3.771  0.7706 -0.5089 -0.2129
   70CHL1  H15A 6305   0.625   2.631   3.736  0.4768  0.4124 -1.3428
   70CHL1  H15B 6306   0.473   2.733   3.737 -0.9473 -1.5814 -0.9937
   70CHL1   C16 6307   0.502   2.600   3.920 -1.1452 -0.0765  0.2721
   70CHL1  H16A 6308   0.602   2.565   3.952 -0.7606  0.9260  0.2016
   70CHL1  H16B 6309   0.458   2.683   3.979 -1.4087 -0.2752  0.3610
   70CHL1   C17 6310   0.406   2.478   3.923  0.0511 -0.4855 -1.3680
   70CHL1   H17 6311   0.301   2.515   3.919  0.5852  1.0758 -1.3748
   70CHL1   C13 6312   0.438   2.402   3.792  0.0406 -0.1619  0.3321
   70CHL1   C18 6313   0.571   2.332   3.800  0.2831  0.3947 -0.3952
   70CHL1  H18A 6314   0.609   2.292   3.703 -1.8418  0.9026 -1.5129
   70CHL1  H18B 6315   0.659   2.384   3.842  0.3282 -0.4328  0.5599
   70CHL1  H18C 6316   0.557   2.236   3.854  2.1970 -0.6191 -1.5953
   70CHL1   C12 6317   0.335   2.309   3.721  0.2231 -0.5295 -0.0030
   70CHL1  H12A 6318   0.315   2.218   3.780 -0.1011  1.0623  2.4880
   70CHL1  H12B 6319   0.238   2.356   3.750  0.3733 -1.3477  1.9414
   70CHL1   C11 6320   0.346   2.289   3.565  0.4978  0.0043 -0.3697
   70CHL1  H11A 6321   0.436   2.226   3.577 -1.1347 -2.0583  2.4599
   70CHL1  H11B 6322   0.260   2.235   3.521  0.3002  1.9570 -2.5391
   70CHL1    C9 6323   0.376   2.409   3.488  0.0601  0.6738  0.7803
   70CHL1    H9 6324   0.286   2.474   3.486 -0.0607  0.6176  2.7544
   70CHL1   C10 6325   0.407   2.384   3.340 -0.0235 -0.2312 -0.3172
   70CHL1   C19 6326   0.503   2.259   3.335  0.0606 -1.0250  0.0892
   70CHL1  H19A 6327   0.533   2.254   3.228  1.6920 -0.6595  0.5078
   70CHL1  H19B 6328   0.597   2.284   3.388  0.7751  2.2573 -2.3526
   70CHL1  H19C 6329   0.455   2.162   3.361 -0.6324 -0.7590 -0.1668
   70CHL1    C1 6330   0.275   2.357   3.263 -0.8372 -0.3545  0.0351
   70CHL1   H1A 6331   0.223   2.263   3.293  1.1465 -0.9884  1.7844
   70CHL1   H1B 6332   0.201   2.439   3.273 -0.8854 -0.1014 -1.9020
   70CHL1    C2 6333   0.302   2.341   3.105  0.7017  0.3909 -0.3831
   70CHL1   H2A 6334   0.206   2.319   3.053  0.5448 -1.2917  0.5649
   70CHL1   H2B 6335   0.370   2.254   3.098  0.8283  0.3044  1.5074
   70CHL1   C20 6336   0.423   2.405   4.055  0.5173  0.1897 -0.3789
   70CHL1   H20 6337   0.525   2.362   4.064 -0.1021 -1.0511  0.8839
   70CHL1   C21 6338   0.329   2.284   4.062  0.2714 -0.1349  0.0924
   70CHL1  H21A 6339   0.320   2.230   4.159  0.3185 -2.7921 -1.3032
   70CHL1  H21B 6340   0.358   2.208   3.987 -0.5405  0.4146 -0.7994
   70CHL1  H21C 6341   0.224   2.312   4.040  0.3205  0.5244  0.6690
   70CHL1   C22 6342   0.401   2.502   4.180  0.2725  0.2863  0.0866
   70CHL1  H22A 6343   0.480   2.581   4.178 -0.1010  0.6621 -2.0399
   70CHL1  H22B 6344   0.302   2.546   4.157 -0.1915 -1.8104 -2.2443
   70CHL1   C23 6345   0.395   2.433   4.317 -0.5505 -0.2250  0.0322
   70CHL1  H23A 6346   0.301   2.379   4.340 -0.6636  0.2520  0.7242
   70CHL1  H23B 6347   0.476   2.358   4.309 -0.7234 -0.4051 -0.0368
   70CHL1   C24 6348   0.423   2.525   4.433  0.0173 -0.7591  0.3757
   70CHL1  H24A 6349   0.522   2.572   4.416 -0.0283 -1.8188 -3.6368
   70CHL1  H24B 6350   0.344   2.599   4.459  0.9700  0.1042  0.9243
   70CHL1   C25 6351   0.441   2.450   4.573 -0.2896  0.0121  0.6258
   70CHL1   H25 6352   0.347   2.396   4.598 -0.7628  0.2566 -0.5569
   70CHL1   C26 6353   0.554   2.349   4.557  0.1428  0.7375 -0.4612
   70CHL1  H26A 6354   0.646   2.387   4.508 -0.5521  1.3912 -1.3095
   70CHL1  H26B 6355   0.582   2.304   4.654 -1.3380 -1.6487 -1.0678
   70CHL1  H26C 6356   0.524   2.265   4.490  0.9214  0.4000 -0.3997
   70CHL1   C27 6357   0.464   2.546   4.682 -0.4232  0.3381 -0.0958
   70CHL1  H27A 6358   0.383   2.622   4.693  0.4386  0.9503  2.9884
   70CHL1  H27B 6359   0.493   2.498   4.778  0.7300 -0.9257 -1.0415
   70CHL1  H27C 6360   0.559   2.599   4.659  0.0356 -0.8743 -1.0981
   71CHL1    C3 6361   3.208   0.724   3.275 -0.5674 -0.8217 -0.2509
   71CHL1    H3 6362   3.135   0.641   3.265  0.3496 -1.5613 -0.9566
   71CHL1    O3 6363   3.304   0.714   3.168  0.1541 -0.1632 -0.0243
   71CHL1   H3' 6364   3.257   0.665   3.100 -0.5615  0.8750 -0.3083
   71CHL1    C4 6365   3.143   0.863   3.254  0.3040 -0.4461 -0.1713
   71CHL1   H4A 6366   3.225   0.938   3.247  1.4038 -1.6174 -0.2474
   71CHL1   H4B 6367   3.078   0.859   3.164 -1.2379  2.9757  0.6253
   71CHL1    C5 6368   3.055   0.894   3.374 -0.0784  0.9337  0.9717
   71CHL1    C6 6369   2.925   0.923   3.360  0.4665 -0.5223 -0.3380
   71CHL1    H6 6370   2.881   0.940   3.261  2.3477  3.1025 -0.7272
   71CHL1    C7 6371   2.830   0.957   3.469  0.6737  0.5629 -0.5564
   71CHL1   H7A 6372   2.782   1.054   3.445  0.7992  0.5135 -1.0108
   71CHL1   H7B 6373   2.748   0.886   3.487  0.7592  1.0485  2.2900
   71CHL1    C8 6374   2.909   0.986   3.603 -0.1228 -0.7994 -0.3520
   71CHL1    H8 6375   2.950   1.089   3.608 -0.1804 -0.7704 -0.4776
   71CHL1   C14 6376   2.801   0.983   3.716 -0.0032  0.4014  0.3286
   71CHL1   H14 6377   2.759   0.880   3.719 -0.0890  0.4305  2.8217
   71CHL1   C15 6378   2.676   1.067   3.706 -0.1522 -0.2663  1.0191
   71CHL1  H15A 6379   2.693   1.171   3.671 -2.3478 -0.1419  0.1190
   71CHL1  H15B 6380   2.604   1.028   3.630 -1.4667  2.3992  0.7659
   71CHL1   C16 6381   2.620   1.065   3.841 -0.4682 -0.6039  0.6623
   71CHL1  H16A 6382   2.602   1.169   3.874 -0.7052 -0.2575 -0.5230
   71CHL1  H16B 6383   2.526   1.006   3.853  0.4265 -2.4662 -0.8880
   71CHL1   C17 6384   2.723   0.990   3.932 -0.1842  0.0769 -0.1017
   71CHL1   H17 6385   2.696   0.882   3.931  1.4185 -0.3581 -0.4334
   71CHL1   C13 6386   2.854   1.001   3.856  0.6506  0.0615 -0.0636
   71CHL1   C18 6387   2.917   1.143   3.872  0.3938  0.0079  0.3716
   71CHL1  H18A 6388   2.956   1.171   3.972 -2.0280 -0.5642  1.5477
   71CHL1  H18B 6389   2.991   1.160   3.791  1.2363  2.0045  1.4792
   71CHL1  H18C 6390   2.836   1.217   3.854  1.0152  0.8030  0.8181
   71CHL1   C12 6391   2.963   0.891   3.882 -0.3551  0.5328 -0.0118
   71CHL1  H12A 6392   3.014   0.908   3.979 -0.8064  1.9978 -0.0165
   71CHL1  H12B 6393   2.912   0.792   3.888  0.4238  0.1591  0.6197
   71CHL1   C11 6394   3.073   0.893   3.770  0.8445  0.8152 -0.0838
   71CHL1  H11A 6395   3.135   0.984   3.786  1.7657 -0.2995  3.4513
   71CHL1  H11B 6396   3.146   0.810   3.775 -0.3944 -0.3318 -0.4029
   71CHL1    C9 6397   3.016   0.881   3.628 -0.2712  0.4356  0.1594
   71CHL1    H9 6398   2.956   0.787   3.624  0.5927 -0.0921 -0.8877
   71CHL1   C10 6399   3.119   0.868   3.515 -0.1010 -0.0457  0.1091
   71CHL1   C19 6400   3.220   0.983   3.540 -0.4430  0.1225  0.0828
   71CHL1  H19A 6401   3.295   1.002   3.461  0.1966  0.6317  0.7982
   71CHL1  H19B 6402   3.161   1.077   3.540 -2.4230 -1.0517  0.5081
   71CHL1  H19C 6403   3.264   0.986   3.642 -0.5733 -1.0067  0.1861
   71CHL1    C1 6404   3.194   0.735   3.523  0.4537  0.4392 -0.1622
   71CHL1   H1A 6405   3.265   0.731   3.609 -0.5667 -0.4723  0.6852
   71CHL1   H1B 6406   3.123   0.650   3.530 -0.5331  1.2041 -0.7001
   71CHL1    C2 6407   3.285   0.704   3.403  0.4083  0.0482  0.0212
   71CHL1   H2A 6408   3.310   0.597   3.424  1.7604  0.0626 -1.4160
   71CHL1   H2B 6409   3.385   0.750   3.407  0.2021  0.7088 -1.6418
   71CHL1   C20 6410   2.717   1.032   4.090 -0.2927  0.2387 -0.1607
   71CHL1   H20 6411   2.761   1.133   4.105  0.3343  0.4968 -3.1329
   71CHL1   C21 6412   2.776   0.924   4.182 -0.3702 -0.5286 -0.3870
   71CHL1  H21A 6413   2.877   0.898   4.145 -0.3591 -1.8644  0.5349
   71CHL1  H21B 6414   2.720   0.829   4.188 -0.5791 -0.5169 -1.8166
   71CHL1  H21C 6415   2.780   0.969   4.283 -0.1346 -1.6111  0.0936
   71CHL1   C22 6416   2.567   1.044   4.136 -0.4728  0.0965 -0.1346
   71CHL1  H22A 6417   2.511   1.107   4.063 -0.6410  1.1859  0.9023
   71CHL1  H22B 6418   2.531   0.939   4.133  1.6540 -0.7695  1.7337
   71CHL1   C23 6419   2.559   1.114   4.273 -0.3886  0.3467 -0.5096
   71CHL1  H23A 6420   2.582   1.042   4.355 -1.0721  1.2511  0.5094
   71CHL1  H23B 6421   2.632   1.197   4.286  2.7848 -2.2917 -0.2574
   71CHL1   C24 6422   2.422   1.160   4.323  0.4107  0.0370 -0.9370
   71CHL1  H24A 6423   2.384   1.241   4.257 -0.7959 -1.0119 -1.5868
   71CHL1  H24B 6424   2.351   1.078   4.296 -1.0283  0.9582 -0.0534
   71CHL1   C25 6425   2.416   1.214   4.468  0.2760  0.0920  0.2345
   71CHL1   H25 6426   2.493   1.292   4.491 -0.5964  1.0300  0.0613
   71CHL1   C26 6427   2.280   1.283   4.497  0.4622 -0.6604  0.3575
   71CHL1  H26A 6428   2.261   1.328   4.596 -0.1863  0.7638 -0.3926
   71CHL1  H26B 6429   2.258   1.366   4.427 -0.9006 -1.5751 -0.3657
   71CHL1  H26C 6430   2.200   1.206   4.486  0.4536 -0.2853 -3.8291
   71CHL1   C27 6431   2.439   1.108   4.567 -0.0948  0.7344 -0.2174
   71CHL1  H27A 6432   2.407   1.131   4.670 -2.8743  0.2947 -0.9114
   71CHL1  H27B 6433   2.372   1.022   4.547 -0.5765  1.4523 -1.9047
   71CHL1  H27C 6434   2.543   1.070   4.564  0.6863  2.7094 -0.1283
   72CHL1    C3 6435   4.033   5.748   3.192 -0.4425  0.2304  0.3957
   72CHL1    H3 6436   4.118   5.809   3.229 -1.3952  1.1057  1.1862
   72CHL1    O3 6437   4.052   5.718   3.051  0.9197  0.2858  0.1789
   72CHL1   H3' 6438   4.079   5.627   3.038 -0.2070 -0.0376 -0.0055
   72CHL1    C4 6439   4.018   5.613   3.268  0.5275 -0.3304  0.0672
   72CHL1   H4A 6440   3.939   5.555   3.215 -0.0985 -0.2597  0.9039
   72CHL1   H4B 6441   4.110   5.551   3.257  0.6496 -0.3636  1.1908
   72CHL1    C5 6442   3.984   5.649   3.414  0.4363 -0.7421 -0.7688
   72CHL1    C6 6443   4.055   5.612   3.523  0.8246 -0.3023 -0.7311
   72CHL1    H6 6444   4.145   5.550   3.505 -1.1766 -4.6329  2.3549
   72CHL1    C7 6445   4.019   5.645   3.670  0.7907 -0.5504  0.3896
   72CHL1   H7A 6446   4.031   5.557   3.736 -2.7193 -0.3532  1.4957
   72CHL1   H7B 6447   4.096   5.714   3.709  1.0217 -0.7483  0.2859
   72CHL1    C8 6448   3.869   5.692   3.675 -0.3718 -0.8276 -0.1410
   72CHL1    H8 6449   3.806   5.604   3.649  1.8337 -2.0725 -1.6378
   72CHL1   C14 6450   3.843   5.739   3.819  0.3809  0.2374  0.2738
   72CHL1   H14 6451   3.916   5.821   3.835 -0.1158  0.6591  0.3905
   72CHL1   C15 6452   3.859   5.635   3.926 -0.2698  0.1099  0.6603
   72CHL1  H15A 6453   3.827   5.531   3.905 -0.8054  0.2458  0.7921
   72CHL1  H15B 6454   3.963   5.619   3.963 -0.8182 -1.3062  1.6662
   72CHL1   C16 6455   3.781   5.695   4.048 -0.5732  0.1363  0.0570
   72CHL1  H16A 6456   3.713   5.616   4.085 -1.4073  1.5217  1.5853
   72CHL1  H16B 6457   3.847   5.735   4.128 -1.9868  1.4725  0.5928
   72CHL1   C17 6458   3.701   5.814   3.993 -0.7603 -0.6568  0.2914
   72CHL1   H17 6459   3.772   5.900   4.003 -0.1858 -1.1176  0.2378
   72CHL1   C13 6460   3.702   5.800   3.840  0.1763 -0.1755 -0.2570
   72CHL1   C18 6461   3.588   5.698   3.810  0.0936  0.3930  0.7285
   72CHL1  H18A 6462   3.576   5.615   3.883  0.9990 -0.3023  0.1269
   72CHL1  H18B 6463   3.493   5.755   3.809  0.4102  0.9371 -0.1784
   72CHL1  H18C 6464   3.597   5.666   3.704 -2.2587  2.3122 -0.1530
   72CHL1   C12 6465   3.680   5.923   3.752 -0.0129 -0.9270 -0.6402
   72CHL1  H12A 6466   3.575   5.957   3.768  0.8006  0.5949  2.1562
   72CHL1  H12B 6467   3.734   6.006   3.802 -1.6654 -0.6638  0.7988
   72CHL1   C11 6468   3.715   5.899   3.602  0.1650  0.2569  0.3674
   72CHL1  H11A 6469   3.622   5.849   3.567 -1.1168  2.2387  0.7729
   72CHL1  H11B 6470   3.712   5.991   3.539 -1.3642 -0.9361 -1.4366
   72CHL1    C9 6471   3.841   5.812   3.574 -0.3893 -0.3759 -0.2681
   72CHL1    H9 6472   3.925   5.883   3.592 -0.2564 -1.0088  1.9816
   72CHL1   C10 6473   3.866   5.749   3.432 -0.2893  0.5530  0.4237
   72CHL1   C19 6474   3.741   5.669   3.384 -0.3267  0.5869 -0.4502
   72CHL1  H19A 6475   3.758   5.631   3.282  2.2122  0.9522 -0.2244
   72CHL1  H19B 6476   3.716   5.581   3.447 -1.4984  1.0672 -0.2010
   72CHL1  H19C 6477   3.652   5.736   3.374 -1.9892 -1.4852 -0.2321
   72CHL1    C1 6478   3.885   5.878   3.341 -0.1857  0.5881  0.0768
   72CHL1   H1A 6479   3.789   5.933   3.334  0.8851  2.7197  0.9292
   72CHL1   H1B 6480   3.959   5.946   3.389 -0.6237  0.3949  1.0592
   72CHL1    C2 6481   3.920   5.846   3.195 -0.2915 -0.2868  0.2427
   72CHL1   H2A 6482   3.947   5.937   3.139 -0.8172 -1.5848 -2.2712
   72CHL1   H2B 6483   3.827   5.807   3.149 -1.3851  1.4117  0.9156
   72CHL1   C20 6484   3.579   5.846   4.075 -0.6252  0.1062  0.7066
   72CHL1   H20 6485   3.508   5.761   4.062 -1.6862  1.2757 -1.9308
   72CHL1   C21 6486   3.511   5.978   4.025  0.1102 -0.1859 -0.3447
   72CHL1  H21A 6487   3.444   5.963   3.939  1.5920  0.3202 -1.6403
   72CHL1  H21B 6488   3.585   6.051   3.984 -0.2805 -0.6078 -1.8417
   72CHL1  H21C 6489   3.467   6.036   4.109  1.7058  0.7480 -0.0878
   72CHL1   C22 6490   3.603   5.854   4.225 -0.4105 -0.0620  0.0561
   72CHL1  H22A 6491   3.509   5.882   4.278  0.1077 -0.6511  1.3073
   72CHL1  H22B 6492   3.648   5.759   4.260  0.2433  0.1862 -0.1047
   72CHL1   C23 6493   3.696   5.969   4.266 -0.2466 -0.0575  0.7599
   72CHL1  H23A 6494   3.735   6.038   4.187  1.7835  1.3225  2.8548
   72CHL1  H23B 6495   3.626   6.030   4.327 -2.1247 -0.5785 -0.7658
   72CHL1   C24 6496   3.816   5.940   4.357 -0.0197 -0.0455  0.1487
   72CHL1  H24A 6497   3.800   5.919   4.465  0.6446 -3.7579 -0.3382
   72CHL1  H24B 6498   3.871   5.849   4.325 -0.5133  0.5507 -2.6412
   72CHL1   C25 6499   3.923   6.056   4.358  0.8393 -0.2048  0.0455
   72CHL1   H25 6500   3.876   6.150   4.393 -3.0231 -0.6074 -3.3444
   72CHL1   C26 6501   4.034   6.025   4.456  0.2712 -0.0333  0.0339
   72CHL1  H26A 6502   4.006   6.041   4.562 -0.6270 -0.1721 -0.1724
   72CHL1  H26B 6503   4.072   5.922   4.443 -2.1708 -1.3697  2.5878
   72CHL1  H26C 6504   4.111   6.101   4.429  0.2541 -0.0528 -0.0683
   72CHL1   C27 6505   3.994   6.076   4.227  0.3721 -0.3520  0.0642
   72CHL1  H27A 6506   4.051   6.172   4.225 -0.9292  0.4286 -1.2066
   72CHL1  H27B 6507   4.060   5.989   4.208  0.5321 -0.3558  0.6180
   72CHL1  H27C 6508   3.920   6.074   4.144 -0.3929 -2.8197  0.7375
   73CHL1    C3 6509   4.277   1.508   3.350  0.2865 -0.8359  0.3594
   73CHL1    H3 6510   4.355   1.428   3.344 -0.1959 -1.3336  0.6166
   73CHL1    O3 6511   4.210   1.508   3.231 -0.6015 -0.3089 -0.4047
   73CHL1   H3' 6512   4.280   1.519   3.167  0.4377  1.3306  0.9306
   73CHL1    C4 6513   4.182   1.473   3.464  0.3322  0.1193 -0.3687
   73CHL1   H4A 6514   4.090   1.535   3.472  0.0205 -0.4958  1.5861
   73CHL1   H4B 6515   4.147   1.372   3.434 -1.9308  1.2919 -1.9720
   73CHL1    C5 6516   4.247   1.478   3.603  0.5683  0.0209 -0.2623
   73CHL1    C6 6517   4.253   1.361   3.684 -0.8066  0.6170 -0.4935
   73CHL1    H6 6518   4.198   1.267   3.668  0.1081  0.2091 -1.3373
   73CHL1    C7 6519   4.318   1.366   3.818  0.0266 -0.4947  0.3181
   73CHL1   H7A 6520   4.253   1.312   3.891 -0.8739  1.3077  0.9165
   73CHL1   H7B 6521   4.420   1.327   3.804  0.5140  0.9863 -0.4874
   73CHL1    C8 6522   4.348   1.514   3.864 -0.0605  0.1419 -0.1709
   73CHL1    H8 6523   4.253   1.569   3.881  0.7386  1.3491  0.5346
   73CHL1   C14 6524   4.417   1.512   4.000 -0.2092 -0.3373 -0.4153
   73CHL1   H14 6525   4.513   1.459   3.983 -1.9247 -3.0626 -2.3670
   73CHL1   C15 6526   4.352   1.434   4.116 -0.7681 -0.2595 -0.2405
   73CHL1  H15A 6527   4.241   1.441   4.112 -0.7430 -0.0124 -0.6299
   73CHL1  H15B 6528   4.381   1.328   4.129  0.1140 -0.3053 -2.1357
   73CHL1   C16 6529   4.387   1.513   4.243 -0.3883 -1.1218  0.5670
   73CHL1  H16A 6530   4.288   1.549   4.279 -1.1453 -2.7955  0.2569
   73CHL1  H16B 6531   4.430   1.448   4.322  0.4210  0.2849  1.3186
   73CHL1   C17 6532   4.493   1.613   4.192 -0.1181  0.0484 -0.2089
   73CHL1   H17 6533   4.582   1.548   4.176 -1.5583 -2.1424  0.2832
   73CHL1   C13 6534   4.440   1.648   4.055  0.0191  0.2613  0.2614
   73CHL1   C18 6535   4.312   1.731   4.070  0.1862  0.7187 -0.2956
   73CHL1  H18A 6536   4.233   1.675   4.124  0.3171 -0.8010 -1.5981
   73CHL1  H18B 6537   4.341   1.829   4.115  2.1685 -1.2247  3.0507
   73CHL1  H18C 6538   4.266   1.744   3.969  1.7456 -0.9727 -1.2824
   73CHL1   C12 6539   4.538   1.711   3.956  0.2657 -0.7073 -0.2131
   73CHL1  H12A 6540   4.557   1.812   3.996 -0.7743  0.3848 -2.2859
   73CHL1  H12B 6541   4.632   1.652   3.962  2.3223  2.2565 -1.0302
   73CHL1   C11 6542   4.483   1.726   3.814  0.0426  0.0833  0.2110
   73CHL1  H11A 6543   4.404   1.804   3.815 -0.8108 -0.7333 -0.9308
   73CHL1  H11B 6544   4.563   1.770   3.751 -0.6216 -1.0866 -1.4868
   73CHL1    C9 6545   4.418   1.595   3.755 -0.1781  0.3771 -0.7256
   73CHL1    H9 6546   4.506   1.532   3.728 -1.1783 -1.0962 -0.6749
   73CHL1   C10 6547   4.328   1.612   3.633  0.6852 -0.0945 -0.0382
   73CHL1   C19 6548   4.213   1.719   3.653  0.2905  0.8977 -0.3605
   73CHL1  H19A 6549   4.257   1.821   3.655  1.2434  0.5930 -2.7270
   73CHL1  H19B 6550   4.136   1.706   3.575  0.6067  1.8131 -0.8307
   73CHL1  H19C 6551   4.167   1.694   3.751 -0.8657 -0.4309 -1.2056
   73CHL1    C1 6552   4.416   1.644   3.509  0.0806  0.4853 -0.2814
   73CHL1   H1A 6553   4.472   1.738   3.526  1.8510 -0.4830 -0.5169
   73CHL1   H1B 6554   4.496   1.568   3.500 -1.6845 -1.7077  1.3301
   73CHL1    C2 6555   4.348   1.644   3.377  0.0979  0.0808  0.0039
   73CHL1   H2A 6556   4.421   1.669   3.296 -0.2158  3.6082  0.6867
   73CHL1   H2B 6557   4.277   1.729   3.376  3.3972  3.0636 -0.7374
   73CHL1   C20 6558   4.534   1.732   4.282 -0.0592 -0.0072 -0.8080
   73CHL1   H20 6559   4.488   1.827   4.248  0.9742  0.2860 -1.4542
   73CHL1   C21 6560   4.685   1.754   4.258  0.0254  0.2715 -0.1787
   73CHL1  H21A 6561   4.726   1.844   4.309  0.4443  0.3723 -0.6921
   73CHL1  H21B 6562   4.712   1.776   4.153  2.1095 -2.0784 -0.2494
   73CHL1  H21C 6563   4.747   1.667   4.289 -2.0239 -0.0315  3.8423
   73CHL1   C22 6564   4.495   1.711   4.432  0.2462 -1.2811  0.0348
   73CHL1  H22A 6565   4.386   1.720   4.453  0.5959 -2.2133  2.6902
   73CHL1  H22B 6566   4.528   1.610   4.464  1.2086 -0.5657  1.4136
   73CHL1   C23 6567   4.559   1.827   4.516  0.3132  0.0993 -0.1458
   73CHL1  H23A 6568   4.669   1.814   4.525  0.2979  1.1471  2.1773
   73CHL1  H23B 6569   4.541   1.925   4.468 -4.1958 -1.2786 -1.8540
   73CHL1   C24 6570   4.503   1.832   4.659 -0.1674  0.1079  0.2089
   73CHL1  H24A 6571   4.393   1.845   4.663 -0.6584 -2.9964 -0.9314
   73CHL1  H24B 6572   4.522   1.727   4.690 -2.0028  0.5887  3.4610
   73CHL1   C25 6573   4.573   1.911   4.771  0.2474 -0.1909  0.8917
   73CHL1   H25 6574   4.569   2.020   4.754 -0.6654 -0.2067  0.9736
   73CHL1   C26 6575   4.490   1.890   4.899  0.7020  0.6070 -0.6107
   73CHL1  H26A 6576   4.393   1.944   4.895  1.0003  1.0686 -1.9896
   73CHL1  H26B 6577   4.467   1.782   4.909 -0.3429  0.6190 -2.4382
   73CHL1  H26C 6578   4.552   1.933   4.981  1.7452 -2.6519  0.4370
   73CHL1   C27 6579   4.721   1.881   4.787  0.6326  0.0819 -0.2294
   73CHL1  H27A 6580   4.772   1.891   4.688 -0.9881  1.2348 -1.0004
   73CHL1  H27B 6581   4.767   1.937   4.870 -0.3083 -1.1878  1.1954
   73CHL1  H27C 6582   4.728   1.776   4.824  1.0095 -0.3496 -1.4426
   74CHL1    C3 6583   5.515   5.097   3.467 -0.8967  0.1632  0.0855
   74CHL1    H3 6584   5.559   5.000   3.500  0.9963  1.3765  1.3812
   74CHL1    O3 6585   5.530   5.095   3.327  0.2826 -0.4246  0.2630
   74CHL1   H3' 6586   5.506   5.184   3.302  0.4521 -0.9069 -1.8342
   74CHL1    C4 6587   5.367   5.111   3.497  0.1767 -0.2954  0.0252
   74CHL1   H4A 6588   5.339   5.202   3.439 -0.3955 -0.7825 -0.4793
   74CHL1   H4B 6589   5.312   5.026   3.451  0.6861  1.5267 -4.4929
   74CHL1    C5 6590   5.332   5.121   3.638 -0.7466 -0.3751 -0.8910
   74CHL1    C6 6591   5.231   5.047   3.694 -0.3999  0.3962 -0.0547
   74CHL1    H6 6592   5.158   4.996   3.630 -0.0340  0.8166 -0.8158
   74CHL1    C7 6593   5.202   5.046   3.842  0.0519 -0.2074 -0.1178
   74CHL1   H7A 6594   5.093   5.050   3.863 -0.1576 -4.0401  0.2768
   74CHL1   H7B 6595   5.243   4.953   3.888  1.3427 -1.6094 -3.7295
   74CHL1    C8 6596   5.259   5.168   3.916  0.0909  0.2873 -0.0640
   74CHL1    H8 6597   5.193   5.253   3.890 -0.0676  0.1262 -0.1921
   74CHL1   C14 6598   5.252   5.153   4.068  0.3115  0.4561  0.6221
   74CHL1   H14 6599   5.329   5.076   4.091  0.7439  1.1767  1.6950
   74CHL1   C15 6600   5.120   5.108   4.126 -0.0539 -0.2879  0.0545
   74CHL1  H15A 6601   5.045   5.173   4.077 -1.6072 -1.7690  0.3789
   74CHL1  H15B 6602   5.092   5.003   4.107 -0.3671 -0.5248  1.6798
   74CHL1   C16 6603   5.122   5.151   4.277 -0.4634 -0.6907 -0.1857
   74CHL1  H16A 6604   5.041   5.221   4.307 -1.1150 -0.4211 -2.3558
   74CHL1  H16B 6605   5.118   5.066   4.348  0.1371 -0.6590 -0.1141
   74CHL1   C17 6606   5.252   5.227   4.299 -0.1668  0.4255  0.1651
   74CHL1   H17 6607   5.330   5.158   4.337 -0.7773 -1.0467 -1.1908
   74CHL1   C13 6608   5.296   5.275   4.152 -0.6513  0.5896  0.6279
   74CHL1   C18 6609   5.206   5.395   4.113 -0.0857 -0.1504  1.1110
   74CHL1  H18A 6610   5.210   5.424   4.006 -0.5487 -0.2250  1.0732
   74CHL1  H18B 6611   5.097   5.379   4.122 -1.2512  3.0148 -3.5171
   74CHL1  H18C 6612   5.242   5.480   4.175 -0.7351 -1.0415  2.7549
   74CHL1   C12 6613   5.446   5.309   4.114  0.2428  0.2713  0.1572
   74CHL1  H12A 6614   5.471   5.406   4.162  0.0108 -0.2146  1.2965
   74CHL1  H12B 6615   5.515   5.226   4.141 -0.4415 -0.0615  0.9181
   74CHL1   C11 6616   5.463   5.314   3.960  0.0847  0.1257 -0.3289
   74CHL1  H11A 6617   5.424   5.415   3.931  1.4748  0.1718 -2.2305
   74CHL1  H11B 6618   5.572   5.327   3.943 -0.5919  2.9979 -3.7205
   74CHL1    C9 6619   5.407   5.195   3.879  0.0003  0.3781  0.0530
   74CHL1    H9 6620   5.467   5.107   3.908  0.0057 -0.3232 -1.8916
   74CHL1   C10 6621   5.430   5.207   3.725  0.0393 -0.2441 -0.1688
   74CHL1   C19 6622   5.378   5.351   3.683 -0.0378 -0.4907 -0.5268
   74CHL1  H19A 6623   5.441   5.432   3.726  2.2110 -2.7282  0.6914
   74CHL1  H19B 6624   5.380   5.384   3.577  0.4120  3.8235  0.6127
   74CHL1  H19C 6625   5.281   5.368   3.733 -0.3935 -0.9129 -1.0612
   74CHL1    C1 6626   5.574   5.183   3.688  0.3668  0.9460  0.2799
   74CHL1   H1A 6627   5.639   5.262   3.733 -0.6477  0.2462  3.1406
   74CHL1   H1B 6628   5.604   5.084   3.728  1.7206  0.1462 -2.4426
   74CHL1    C2 6629   5.597   5.202   3.533  0.2633 -0.0255 -0.0431
   74CHL1   H2A 6630   5.706   5.195   3.509  0.6431  0.7949  1.3665
   74CHL1   H2B 6631   5.572   5.305   3.501  2.0118  1.4716  3.0066
   74CHL1   C20 6632   5.240   5.337   4.413  0.2495  0.4542  0.0546
   74CHL1   H20 6633   5.177   5.420   4.374  0.9028  0.7966 -0.2968
   74CHL1   C21 6634   5.387   5.383   4.436 -0.4173 -0.5268 -0.1055
   74CHL1  H21A 6635   5.451   5.298   4.470  0.2714 -0.3297 -0.8633
   74CHL1  H21B 6636   5.384   5.464   4.512  0.2024 -2.8871  2.6103
   74CHL1  H21C 6637   5.439   5.437   4.354 -0.6271  0.6494  0.5125
   74CHL1   C22 6638   5.179   5.277   4.540  0.2346  0.3839  0.1479
   74CHL1  H22A 6639   5.081   5.224   4.535  0.9684 -0.9758 -0.5834
   74CHL1  H22B 6640   5.243   5.189   4.562  1.1183  0.7271 -0.9908
   74CHL1   C23 6641   5.190   5.350   4.670  0.1108  0.1042 -0.2933
   74CHL1  H23A 6642   5.133   5.291   4.745 -0.6862 -0.1120 -1.0558
   74CHL1  H23B 6643   5.292   5.359   4.714 -0.2711  0.6403  0.5164
   74CHL1   C24 6644   5.118   5.492   4.672 -0.6970  0.3696 -0.2888
   74CHL1  H24A 6645   5.180   5.569   4.623  0.2747  0.1434  0.5530
   74CHL1  H24B 6646   5.020   5.473   4.624 -1.1648  0.8863  0.4475
   74CHL1   C25 6647   5.078   5.531   4.815 -0.1340  1.0443 -0.5591
   74CHL1   H25 6648   5.025   5.447   4.864  0.0204  1.1205 -0.2589
   74CHL1   C26 6649   5.209   5.566   4.890  0.1869  0.1361 -0.7311
   74CHL1  H26A 6650   5.190   5.583   4.998  0.0174  1.8895 -1.0001
   74CHL1  H26B 6651   5.283   5.484   4.883  2.0212  1.7016 -0.3425
   74CHL1  H26C 6652   5.249   5.660   4.846  0.9494 -0.1148 -0.5710
   74CHL1   C27 6653   4.997   5.660   4.801  0.3024  0.7006 -0.2235
   74CHL1  H27A 6654   4.960   5.695   4.900 -1.2182 -1.0158 -0.1202
   74CHL1  H27B 6655   5.055   5.743   4.756  3.1215 -0.2243  1.4353
   74CHL1  H27C 6656   4.910   5.628   4.740  1.3791 -2.6940 -0.2008
   75CHL1    C3 6657   5.111   6.481   3.504 -0.6158 -0.3178 -0.4911
   75CHL1    H3 6658   5.133   6.584   3.469 -0.6525 -0.2472 -0.3047
   75CHL1    O3 6659   5.058   6.405   3.396  0.4016  0.9724  0.3772
   75CHL1   H3' 6660   4.968   6.437   3.387 -0.5347 -1.9679 -3.1717
   75CHL1    C4 6661   5.242   6.422   3.555  0.6017  0.7180  0.3253
   75CHL1   H4A 6662   5.221   6.318   3.586 -0.4976  0.3619 -1.4804
   75CHL1   H4B 6663   5.315   6.418   3.471  1.3416 -0.2425  0.9991
   75CHL1    C5 6664   5.302   6.505   3.669  0.2316  0.0225  0.9036
   75CHL1    C6 6665   5.422   6.555   3.655 -0.0639  0.8689  0.8660
   75CHL1    H6 6666   5.481   6.533   3.564 -1.2634  0.7450  0.0943
   75CHL1    C7 6667   5.498   6.626   3.767  0.2651 -0.1834  0.1995
   75CHL1   H7A 6668   5.598   6.584   3.787 -0.5863 -2.0575  0.7225
   75CHL1   H7B 6669   5.511   6.734   3.744  0.7445  0.3114  2.4893
   75CHL1    C8 6670   5.413   6.616   3.897 -0.5526 -0.8551 -0.4249
   75CHL1    H8 6671   5.431   6.517   3.945  0.8611  0.0876  1.0882
   75CHL1   C14 6672   5.456   6.722   3.999 -0.0180  0.3007  0.6144
   75CHL1   H14 6673   5.434   6.822   3.957  0.0330  0.4136  0.8522
   75CHL1   C15 6674   5.606   6.728   4.026 -0.6828 -0.1773 -0.3666
   75CHL1  H15A 6675   5.650   6.626   4.017 -2.9188 -1.1531 -0.9609
   75CHL1  H15B 6676   5.660   6.800   3.961 -1.9180 -0.3683 -1.6340
   75CHL1   C16 6677   5.626   6.786   4.162  0.3766 -0.2830  0.2396
   75CHL1  H16A 6678   5.683   6.716   4.226 -0.1433  1.2073  2.4284
   75CHL1  H16B 6679   5.693   6.874   4.164  0.5906 -0.3060 -2.4656
   75CHL1   C17 6680   5.480   6.823   4.203  0.0398 -0.0521 -0.3356
   75CHL1   H17 6681   5.447   6.922   4.165  1.4197 -0.2369 -2.1146
   75CHL1   C13 6682   5.392   6.713   4.133  0.8048  0.8192 -0.1140
   75CHL1   C18 6683   5.410   6.574   4.193 -0.8636  0.2472 -0.2581
   75CHL1  H18A 6684   5.353   6.555   4.286 -1.4034 -0.0558 -0.6437
   75CHL1  H18B 6685   5.368   6.493   4.129 -2.1125  0.3430  0.4144
   75CHL1  H18C 6686   5.519   6.553   4.204 -0.5258  0.1710 -3.0333
   75CHL1   C12 6687   5.242   6.751   4.111  0.1053 -0.6842 -0.1880
   75CHL1  H12A 6688   5.188   6.757   4.208  0.3665  1.3386 -0.1093
   75CHL1  H12B 6689   5.251   6.854   4.070 -0.6421 -0.5854 -0.1122
   75CHL1   C11 6690   5.185   6.651   4.011  0.3043  0.3093  0.3622
   75CHL1  H11A 6691   5.179   6.550   4.059 -0.3341  0.8429  1.4621
   75CHL1  H11B 6692   5.079   6.673   3.986  0.3425 -1.0809 -1.1878
   75CHL1    C9 6693   5.263   6.634   3.876 -0.1899 -1.0434  0.1972
   75CHL1    H9 6694   5.254   6.737   3.837  0.8791 -0.7783  0.6149
   75CHL1   C10 6695   5.205   6.527   3.789  0.4390 -0.4056  0.2102
   75CHL1   C19 6696   5.193   6.390   3.862  0.5564 -0.1422 -0.0965
   75CHL1  H19A 6697   5.290   6.356   3.904  0.4341 -2.4406 -1.4886
   75CHL1  H19B 6698   5.121   6.410   3.944  1.1565  1.1436  0.1633
   75CHL1  H19C 6699   5.151   6.305   3.805  2.5231 -0.7222 -0.7774
   75CHL1    C1 6700   5.062   6.573   3.734 -0.3146  0.9136 -0.4838
   75CHL1   H1A 6701   4.981   6.568   3.810 -0.1674 -0.4404 -0.3882
   75CHL1   H1B 6702   5.082   6.678   3.705  0.6431  0.9831  0.3542
   75CHL1    C2 6703   5.006   6.501   3.611  0.2550  1.0299 -0.5159
   75CHL1   H2A 6704   4.919   6.559   3.575 -0.8447 -0.1514  0.1468
   75CHL1   H2B 6705   4.971   6.401   3.646  2.3134  0.8380  1.2067
   75CHL1   C20 6706   5.459   6.840   4.351  0.2024  0.1387 -1.0707
   75CHL1   H20 6707   5.355   6.813   4.379  0.1005  1.1179 -0.4591
   75CHL1   C21 6708   5.474   6.993   4.383 -0.1011  0.4767 -0.3022
   75CHL1  H21A 6709   5.404   7.051   4.318  0.1916  0.3393 -0.7452
   75CHL1  H21B 6710   5.581   7.023   4.374  0.2413 -0.7001 -0.3222
   75CHL1  H21C 6711   5.431   7.015   4.483 -2.4164  1.6989 -1.4719
   75CHL1   C22 6712   5.550   6.753   4.444 -0.4292  0.4376 -0.4791
   75CHL1  H22A 6713   5.545   6.645   4.420 -0.0002  0.5475 -1.1122
   75CHL1  H22B 6714   5.658   6.782   4.445  0.2950 -1.4985 -4.2578
   75CHL1   C23 6715   5.511   6.761   4.599  0.1946  0.2621 -0.1313
   75CHL1  H23A 6716   5.515   6.868   4.630  2.1307 -0.7390  3.5972
   75CHL1  H23B 6717   5.409   6.718   4.598  0.5911 -0.6967 -1.3522
   75CHL1   C24 6718   5.616   6.690   4.683  0.5977 -0.0802  0.5219
   75CHL1  H24A 6719   5.618   6.586   4.643  0.4604 -0.4967  1.5895
   75CHL1  H24B 6720   5.714   6.728   4.645 -1.0357  1.5183 -2.5272
   75CHL1   C25 6721   5.600   6.708   4.838  0.8074  0.0322  0.4753
   75CHL1   H25 6722   5.696   6.666   4.875  0.6991 -1.9404 -1.2915
   75CHL1   C26 6723   5.596   6.862   4.870 -0.2426  0.7231  0.1023
   75CHL1  H26A 6724   5.600   6.881   4.979 -0.1702  2.5412 -0.1923
   75CHL1  H26B 6725   5.671   6.921   4.813 -1.0407 -0.2850 -2.1357
   75CHL1  H26C 6726   5.493   6.884   4.834 -0.7096  1.2330  1.7040
   75CHL1   C27 6727   5.483   6.634   4.897 -0.4185 -0.8853  0.5062
   75CHL1  H27A 6728   5.387   6.655   4.846 -0.2427  0.7352  0.7571
   75CHL1  H27B 6729   5.502   6.526   4.882 -0.5746 -0.8878  0.3237
   75CHL1  H27C 6730   5.476   6.655   5.006  2.3273  1.6932  0.3107
   76CHL1    C3 6731   3.137   2.116   3.453  0.5522 -0.3430  0.4177
   76CHL1    H3 6732   3.210   2.055   3.512  2.1834 -0.0374 -1.1980
   76CHL1    O3 6733   3.183   2.093   3.318 -0.5586  0.2753 -0.2812
   76CHL1   H3' 6734   3.152   2.169   3.269  0.0018  0.0955 -0.9365
   76CHL1    C4 6735   2.991   2.058   3.471  0.3105 -0.1275  0.3850
   76CHL1   H4A 6736   2.924   2.114   3.402  0.5161 -2.4853 -1.8289
   76CHL1   H4B 6737   2.984   1.955   3.430 -1.6289  0.8421 -1.9712
   76CHL1    C5 6738   2.948   2.067   3.614  0.3675 -0.5507  0.2780
   76CHL1    C6 6739   2.911   1.967   3.694 -0.6488  0.0053 -0.2446
   76CHL1    H6 6740   2.930   1.866   3.655 -2.7066 -0.8278  0.7702
   76CHL1    C7 6741   2.853   1.979   3.836 -0.1034  0.3232 -0.5591
   76CHL1   H7A 6742   2.775   1.903   3.859  0.4467  0.6905  3.0451
   76CHL1   H7B 6743   2.942   1.946   3.893  1.1891 -1.3791 -3.3710
   76CHL1    C8 6744   2.812   2.127   3.867  0.2283  0.7605  0.2438
   76CHL1    H8 6745   2.720   2.153   3.812 -0.0363  3.0589  1.6248
   76CHL1   C14 6746   2.775   2.137   4.011  0.4343 -0.4931 -0.6600
   76CHL1   H14 6747   2.873   2.135   4.064  1.3457  1.2788 -2.1459
   76CHL1   C15 6748   2.684   2.037   4.076 -0.2086 -0.1773 -0.4682
   76CHL1  H15A 6749   2.613   2.002   3.998 -2.1916 -0.6547  1.4538
   76CHL1  H15B 6750   2.731   1.940   4.104 -1.6083 -0.4806  0.9794
   76CHL1   C16 6751   2.622   2.109   4.195  0.1241 -0.0904 -0.7469
   76CHL1  H16A 6752   2.512   2.098   4.184 -0.1644 -0.5707  2.0077
   76CHL1  H16B 6753   2.647   2.043   4.281 -1.6768  0.2660  0.0857
   76CHL1   C17 6754   2.684   2.248   4.195 -0.3770  0.6007  0.5632
   76CHL1   H17 6755   2.774   2.241   4.260  0.7832  0.8939 -0.9717
   76CHL1   C13 6756   2.726   2.278   4.053 -0.6032 -0.1479 -0.6479
   76CHL1   C18 6757   2.597   2.327   3.987 -0.3583 -0.3523  0.2551
   76CHL1  H18A 6758   2.609   2.322   3.876 -1.6115 -0.2851  0.0998
   76CHL1  H18B 6759   2.512   2.261   4.013 -1.6144  0.8950 -0.4995
   76CHL1  H18C 6760   2.578   2.431   4.020 -1.5312 -0.3739 -0.2885
   76CHL1   C12 6761   2.852   2.363   4.027  0.0118  0.3090 -0.9000
   76CHL1  H12A 6762   2.841   2.468   4.060 -0.8706  0.4664 -1.6707
   76CHL1  H12B 6763   2.941   2.323   4.081  0.0357  2.7088  1.0238
   76CHL1   C11 6764   2.873   2.363   3.874 -0.2864 -0.4276 -0.1978
   76CHL1  H11A 6765   2.783   2.398   3.819 -0.4788 -1.5004 -0.5776
   76CHL1  H11B 6766   2.960   2.430   3.857  0.6688 -1.3448  0.9527
   76CHL1    C9 6767   2.913   2.223   3.821 -0.2467 -0.1387  0.6267
   76CHL1    H9 6768   3.006   2.197   3.876 -0.7663 -0.3953  1.4215
   76CHL1   C10 6769   2.945   2.214   3.660 -0.4227  0.3944 -0.3408
   76CHL1   C19 6770   2.832   2.298   3.589 -0.3277  0.2764 -0.6572
   76CHL1  H19A 6771   2.833   2.407   3.611 -0.4594 -0.1184  1.5789
   76CHL1  H19B 6772   2.843   2.286   3.479  0.0996 -2.1054 -0.4008
   76CHL1  H19C 6773   2.737   2.249   3.617 -1.0089  2.9291  2.2971
   76CHL1    C1 6774   3.083   2.279   3.639 -1.5363  0.0840  0.2775
   76CHL1   H1A 6775   3.086   2.387   3.665 -1.1270  0.1275  0.0669
   76CHL1   H1B 6776   3.155   2.231   3.709 -0.0479  1.4992 -0.2017
   76CHL1    C2 6777   3.138   2.262   3.499  0.0094 -0.0159  0.0532
   76CHL1   H2A 6778   3.234   2.317   3.489  1.2062 -1.8381  0.8535
   76CHL1   H2B 6779   3.068   2.312   3.428 -0.8104 -0.6411  0.3973
   76CHL1   C20 6780   2.602   2.353   4.276  0.0315  0.4433 -0.3924
   76CHL1   H20 6781   2.510   2.363   4.214 -0.3369  0.1203  0.0945
   76CHL1   C21 6782   2.670   2.493   4.278 -0.3459  0.1588 -0.0289
   76CHL1  H21A 6783   2.772   2.498   4.323 -0.9208  0.2659  1.2991
   76CHL1  H21B 6784   2.608   2.562   4.340  2.3078  0.4209  2.5486
   76CHL1  H21C 6785   2.660   2.531   4.174 -0.2240 -1.1097 -0.5200
   76CHL1   C22 6786   2.574   2.307   4.422 -0.8645 -0.1869 -0.5570
   76CHL1  H22A 6787   2.512   2.391   4.459  1.1648  0.9384  0.4758
   76CHL1  H22B 6788   2.506   2.220   4.437 -0.0952 -0.5760  0.9379
   76CHL1   C23 6789   2.698   2.283   4.506 -0.1182  0.2399 -0.5535
   76CHL1  H23A 6790   2.755   2.197   4.465  0.3769  0.2091  0.1905
   76CHL1  H23B 6791   2.771   2.367   4.507  1.3943 -0.9957 -1.9286
   76CHL1   C24 6792   2.666   2.244   4.656 -0.5275 -0.1103  0.1435
   76CHL1  H24A 6793   2.622   2.143   4.639 -0.7762 -0.3887  2.1817
   76CHL1  H24B 6794   2.761   2.240   4.714 -0.1658  0.9227 -0.3464
   76CHL1   C25 6795   2.588   2.349   4.728  0.7058  0.4831 -0.2219
   76CHL1   H25 6796   2.497   2.370   4.668  0.1259 -0.5696  0.2748
   76CHL1   C26 6797   2.562   2.288   4.866  0.3399 -0.0267  0.1020
   76CHL1  H26A 6798   2.655   2.275   4.924  0.5341 -0.4486 -0.2982
   76CHL1  H26B 6799   2.496   2.360   4.920  0.5459  0.6472 -0.5329
   76CHL1  H26C 6800   2.516   2.187   4.861  1.4246 -0.5717  0.7623
   76CHL1   C27 6801   2.656   2.485   4.748 -0.7239 -0.4888 -0.0302
   76CHL1  H27A 6802   2.647   2.552   4.659  0.0444 -1.0443 -0.5365
   76CHL1  H27B 6803   2.619   2.545   4.834 -0.9931  0.4041 -0.7474
   76CHL1  H27C 6804   2.766   2.480   4.762 -0.4554  1.1383 -1.3006
   77SOPE     N 6805   5.811   5.947   7.448 -0.0133 -0.0837 -0.3752
   77SOPE   HN1 6806   5.841   5.848   7.439  2.2833  0.6522 -1.5794
   77SOPE   HN2 6807   5.771   5.981   7.357  1.5096 -0.3466 -1.1717
   77SOPE   HN3 6808   5.890   6.005   7.481  0.0718  0.0427 -0.7872
   77SOPE   C12 6809   5.706   5.946   7.550 -0.1526 -0.0558  0.3616
   77SOPE  H12A 6810   5.674   6.050   7.571  2.5375  1.1382 -0.9143
   77SOPE  H12B 6811   5.745   5.902   7.644 -0.8624  0.6403  1.0012
   77SOPE   C11 6812   5.577   5.872   7.497 -0.2818 -0.2457 -0.3364
   77SOPE  H11A 6813   5.530   5.940   7.424 -1.3466 -0.7734 -0.1621
   77SOPE  H11B 6814   5.510   5.885   7.585 -0.5674  2.0135 -0.8167
   77SOPE     P 6815   5.587   5.678   7.314 -0.2515 -0.5398 -0.0420
   77SOPE   O13 6816   5.451   5.650   7.281  0.2376  0.4736 -0.0663
   77SOPE   O14 6817   5.692   5.571   7.312  0.7954 -0.2668  0.1202
   77SOPE   O12 6818   5.591   5.740   7.460  0.5517  0.3061 -0.0329
   77SOPE   O11 6819   5.635   5.809   7.243 -0.3120 -0.1654  0.8367
   77SOPE    C1 6820   5.554   5.895   7.166 -0.1345  0.6535 -0.5405
   77SOPE    HA 6821   5.560   5.999   7.205  1.9029 -0.3342  2.1004
   77SOPE    HB 6822   5.446   5.873   7.172 -0.4486  2.2031  0.0080
   77SOPE    C2 6823   5.576   5.897   7.012  0.0264 -0.4054 -0.2471
   77SOPE    HS 6824   5.497   5.960   6.967  0.0649  1.1573  1.7249
   77SOPE   O21 6825   5.581   5.762   6.967  0.3632 -0.1286 -0.8655
   77SOPE   C21 6826   5.464   5.707   6.965 -1.0721  0.1608  0.5322
   77SOPE   O22 6827   5.356   5.768   6.973  0.4867  0.1465  0.2341
   77SOPE   C22 6828   5.481   5.555   6.944  0.2334  0.0391  0.8413
   77SOPE   H2R 6829   5.511   5.498   7.034  1.9712 -0.2896  0.1036
   77SOPE   H2S 6830   5.558   5.553   6.864 -0.9376  0.0510 -0.3229
   77SOPE    C3 6831   5.716   5.961   6.974 -0.3197 -0.1159  0.2667
   77SOPE    HX 6832   5.793   5.889   7.008 -0.9038 -0.3787  1.0729
   77SOPE    HY 6833   5.722   6.049   7.042  1.4558 -0.6398  0.8436
   77SOPE   O31 6834   5.730   5.999   6.837  0.3079  0.1394  0.5665
   77SOPE   C31 6835   5.766   6.121   6.814 -0.0032 -0.7280  0.0772
   77SOPE   O32 6836   5.804   6.201   6.896 -0.3919 -0.2469 -0.0125
   77SOPE   C32 6837   5.746   6.169   6.674  0.0731 -0.0685  0.1793
   77SOPE   H2X 6838   5.651   6.227   6.668  0.3966  0.3516 -0.9720
   77SOPE   H2Y 6839   5.731   6.082   6.608 -0.7619 -1.1280  1.6960
   77SOPE   C23 6840   5.354   5.481   6.885 -0.2830 -0.0807 -1.0160
   77SOPE   H3R 6841   5.272   5.505   6.956  0.6452  0.8804 -0.2256
   77SOPE   H3S 6842   5.377   5.373   6.877  0.0001 -0.0781 -0.3042
   77SOPE   C24 6843   5.319   5.512   6.738 -0.8916  0.1952 -0.6794
   77SOPE   H4R 6844   5.209   5.500   6.723 -0.3612 -1.0092 -4.4608
   77SOPE   H4S 6845   5.329   5.622   6.723  1.4030  0.1612  0.2529
   77SOPE   C25 6846   5.393   5.437   6.628 -0.3484  0.3319  0.2516
   77SOPE   H5R 6847   5.501   5.463   6.626 -0.6495  1.7270 -2.1134
   77SOPE   H5S 6848   5.374   5.330   6.653 -1.5794  0.7668  1.2752
   77SOPE   C26 6849   5.321   5.458   6.492 -0.6846  0.3586  0.2345
   77SOPE   H6R 6850   5.225   5.402   6.491 -1.3375  1.4478 -0.2207
   77SOPE   H6S 6851   5.301   5.567   6.495  1.9714  0.8968  0.8687
   77SOPE   C27 6852   5.400   5.389   6.371 -0.0224 -0.0679 -0.0718
   77SOPE   H7R 6853   5.486   5.458   6.355  0.5305 -0.2230  1.9731
   77SOPE   H7S 6854   5.430   5.288   6.406 -2.0943 -0.7683 -0.1495
   77SOPE   C28 6855   5.321   5.389   6.242 -0.6753  0.4398  0.5706
   77SOPE   H8R 6856   5.369   5.326   6.164 -0.9116 -0.3403  1.0440
   77SOPE   H8S 6857   5.226   5.342   6.277 -1.0235  2.2191  2.1517
   77SOPE   C29 6858   5.290   5.528   6.182 -0.0448  0.2229 -0.2438
   77SOPE   H91 6859   5.234   5.586   6.257  0.8190 -0.6203  1.0868
   77SOPE  C210 6860   5.303   5.575   6.061 -0.8901 -0.8025 -0.1254
   77SOPE  H101 6861   5.282   5.681   6.040 -0.5282 -0.6089  0.4752
   77SOPE  C211 6862   5.370   5.505   5.939 -0.0098 -0.9495  0.3300
   77SOPE  H11R 6863   5.309   5.537   5.852  1.3706  2.4782  0.4648
   77SOPE  H11S 6864   5.357   5.395   5.948 -1.9773 -0.6282  2.1664
   77SOPE  C212 6865   5.510   5.551   5.904 -0.2042 -0.4529  1.2630
   77SOPE  H12R 6866   5.563   5.587   5.995 -1.4025  2.7359  0.8374
   77SOPE  H12S 6867   5.512   5.646   5.847 -0.5344 -2.6624 -2.7942
   77SOPE  C213 6868   5.600   5.459   5.824 -0.1886  0.3546 -0.2771
   77SOPE  H13R 6869   5.551   5.416   5.734  0.5755 -2.2833  0.4917
   77SOPE  H13S 6870   5.630   5.375   5.890 -1.4762  0.6125  0.6736
   77SOPE  C214 6871   5.735   5.519   5.787 -0.1385 -0.3293  0.2327
   77SOPE  H14R 6872   5.794   5.551   5.876 -1.0969 -0.1046  0.8072
   77SOPE  H14S 6873   5.724   5.616   5.734 -0.3300 -0.4736  0.0103
   77SOPE  C215 6874   5.828   5.431   5.705 -0.3932  0.0925  0.3839
   77SOPE  H15R 6875   5.893   5.362   5.763  1.5886 -0.7754 -2.5902
   77SOPE  H15S 6876   5.909   5.493   5.661  0.6178  0.3767  2.5460
   77SOPE  C216 6877   5.764   5.343   5.595  0.0735 -0.3106 -0.1141
   77SOPE  H16R 6878   5.726   5.421   5.525  2.5885 -0.2291 -1.4918
   77SOPE  H16S 6879   5.682   5.290   5.648 -1.7344  2.6532  0.3111
   77SOPE  C217 6880   5.861   5.250   5.526 -0.2109 -0.4188  0.4448
   77SOPE  H17R 6881   5.899   5.187   5.610  0.3563  1.4022  1.6212
   77SOPE  H17S 6882   5.946   5.299   5.474 -0.3851  2.7484  2.8080
   77SOPE  C218 6883   5.789   5.148   5.431 -0.5025  0.6568 -0.4649
   77SOPE  H18R 6884   5.859   5.091   5.366 -1.0848 -0.8726  0.2117
   77SOPE  H18S 6885   5.728   5.209   5.361  0.1522  1.2115 -0.5667
   77SOPE  H18T 6886   5.726   5.079   5.490  2.9149 -0.4350  2.2359
   77SOPE   C33 6887   5.869   6.252   6.631 -0.1111  1.1408  0.2294
   77SOPE   H3X 6888   5.957   6.187   6.616 -0.7591  0.6568 -1.7281
   77SOPE   H3Y 6889   5.898   6.315   6.718 -2.2126  0.3108  1.6079
   77SOPE   C34 6890   5.849   6.333   6.511 -0.2335 -0.4288 -0.0211
   77SOPE   H4X 6891   5.924   6.414   6.526 -0.2873 -0.4463  0.3552
   77SOPE   H4Y 6892   5.753   6.387   6.524  0.4003  0.4521  1.3347
   77SOPE   C35 6893   5.858   6.269   6.368 -0.8775  0.0032 -0.2783
   77SOPE   H5X 6894   5.766   6.208   6.356 -0.9948  0.1885 -0.3342
   77SOPE   H5Y 6895   5.946   6.202   6.360 -0.6734 -0.0627  1.9373
   77SOPE   C36 6896   5.850   6.381   6.268 -0.0157  0.2701 -0.6805
   77SOPE   H6X 6897   5.941   6.442   6.287  0.2147 -0.3159  0.1142
   77SOPE   H6Y 6898   5.758   6.441   6.286 -1.5420 -1.8185 -1.1604
   77SOPE   C37 6899   5.844   6.331   6.118  1.0083 -0.1633 -0.3569
   77SOPE   H7X 6900   5.755   6.267   6.100  0.6883 -0.4708  2.0723
   77SOPE   H7Y 6901   5.931   6.266   6.094  0.2226 -1.6920  0.8284
   77SOPE   C38 6902   5.851   6.449   6.025  0.5661 -0.0955  1.0647
   77SOPE   H8X 6903   5.822   6.544   6.075 -1.3583  0.0885 -0.3092
   77SOPE   H8Y 6904   5.773   6.418   5.952  0.1360 -1.4463  2.0666
   77SOPE   C39 6905   5.984   6.457   5.939  0.4740 -0.2495 -0.3554
   77SOPE   H9X 6906   6.014   6.357   5.901  3.7873  0.0729  1.0400
   77SOPE   H9Y 6907   6.070   6.474   6.008  0.0440  0.3000  0.0542
   77SOPE  C310 6908   5.978   6.572   5.840  0.3490  0.5258  0.0777
   77SOPE  H10X 6909   5.989   6.667   5.897 -0.1839  0.6006  0.0578
   77SOPE  H10Y 6910   5.875   6.574   5.800  1.1913  1.1629 -2.1852
   77SOPE  C311 6911   6.085   6.568   5.732 -0.3005  0.5983 -0.2624
   77SOPE  H11X 6912   6.076   6.476   5.672  0.2860  1.9805 -2.6060
   77SOPE  H11Y 6913   6.185   6.561   5.782 -0.8943  1.1809  1.0665
   77SOPE  C312 6914   6.088   6.695   5.647  0.1679  0.0560 -0.1225
   77SOPE  H12X 6915   6.074   6.786   5.709 -0.2996 -0.1914  0.1409
   77SOPE  H12Y 6916   5.997   6.686   5.584  0.7617  2.7448 -1.5034
   77SOPE  C313 6917   6.202   6.692   5.546 -0.0736 -0.1637 -0.6335
   77SOPE  H13X 6918   6.198   6.604   5.479  0.6709  0.8754 -2.1024
   77SOPE  H13Y 6919   6.301   6.680   5.595 -0.0064 -1.5471 -1.0432
   77SOPE  C314 6920   6.199   6.823   5.464 -0.8674  0.1376  0.5206
   77SOPE  H14X 6921   6.220   6.915   5.523  2.1222  0.0447 -0.2702
   77SOPE  H14Y 6922   6.093   6.831   5.432 -0.8553 -2.2564 -0.3202
   77SOPE  C315 6923   6.286   6.846   5.334  0.4901  0.3805 -0.1600
   77SOPE  H15X 6924   6.280   6.755   5.270 -1.1197  1.7824 -2.1130
   77SOPE  H15Y 6925   6.390   6.861   5.370  0.8138 -1.2635 -0.3399
   77SOPE  C316 6926   6.246   6.975   5.259  0.2322  0.3030  0.0174
   77SOPE  H16X 6927   6.216   7.040   5.343  0.0643 -0.9467  0.9581
   77SOPE  H16Y 6928   6.149   6.947   5.214 -0.3320 -1.1677  1.9925
   77SOPE  C317 6929   6.363   7.032   5.175  0.0801 -0.0087 -0.1047
   77SOPE  H17X 6930   6.325   7.085   5.085  2.1427  4.0136  1.1392
   77SOPE  H17Y 6931   6.416   6.947   5.127 -0.4357 -0.1807 -0.3756
   77SOPE  C318 6932   6.463   7.129   5.248 -0.2197  0.4539 -0.1321
   77SOPE  H18X 6933   6.527   7.183   5.175  0.5299 -0.0038  0.1718
   77SOPE  H18Y 6934   6.520   7.062   5.316 -1.7329  0.3768  1.1140
   77SOPE  H18Z 6935   6.422   7.207   5.316  0.7109  0.8243  0.0161
   78SOPE     N 6936   5.169   3.990   7.161  0.2528 -0.1092 -0.9673
   78SOPE   HN1 6937   5.136   4.080   7.199 -1.5293 -1.5346  1.0569
   78SOPE   HN2 6938   5.117   3.935   7.232  0.4046  0.9716  0.0045
   78SOPE   HN3 6939   5.271   3.974   7.176 -0.1570 -2.2028 -0.1596
   78SOPE   C12 6940   5.125   3.960   7.023 -0.1580  0.3528  0.3933
   78SOPE  H12A 6941   5.017   3.989   7.020 -0.1264  0.4047 -0.2817
   78SOPE  H12B 6942   5.148   3.853   7.004 -1.9103  0.1620 -0.9188
   78SOPE   C11 6943   5.197   4.038   6.914  0.3194 -0.0030 -0.2756
   78SOPE  H11A 6944   5.166   3.995   6.816 -0.0874 -0.1705 -0.0761
   78SOPE  H11B 6945   5.306   4.028   6.932 -0.0386  0.0191  2.1588
   78SOPE     P 6946   5.248   4.284   6.954  0.2828  0.0085  0.0727
   78SOPE   O13 6947   5.292   4.243   7.087 -0.0349  0.1481  0.1657
   78SOPE   O14 6948   5.176   4.413   6.942 -0.3018  0.4386 -0.3630
   78SOPE   O12 6949   5.149   4.171   6.911 -0.2534  0.2214  0.4408
   78SOPE   O11 6950   5.355   4.270   6.845  0.3436 -0.5519 -0.0735
   78SOPE    C1 6951   5.319   4.261   6.706  0.1499 -0.0198  0.1996
   78SOPE    HA 6952   5.293   4.359   6.661  0.0295 -0.6759 -1.1902
   78SOPE    HB 6953   5.234   4.191   6.692 -0.9735  1.0443  1.5060
   78SOPE    C2 6954   5.434   4.214   6.620  0.3182  0.0987 -0.2392
   78SOPE    HS 6955   5.465   4.113   6.654 -0.3223 -0.1228 -0.2935
   78SOPE   O21 6956   5.540   4.310   6.617  0.0550 -0.3718 -0.2420
   78SOPE   C21 6957   5.640   4.287   6.542 -0.3957 -0.0933  0.4722
   78SOPE   O22 6958   5.667   4.179   6.502 -0.5079 -0.4852  0.5808
   78SOPE   C22 6959   5.714   4.417   6.505 -0.2180  0.3311 -0.3257
   78SOPE   H2R 6960   5.716   4.470   6.603  0.2283  0.4379 -0.3909
   78SOPE   H2S 6961   5.644   4.467   6.435 -3.4985 -0.6510  1.9877
   78SOPE    C3 6962   5.379   4.194   6.470  0.1314  0.7135 -0.2790
   78SOPE    HX 6963   5.268   4.185   6.469 -0.1724  3.4414  0.1539
   78SOPE    HY 6964   5.421   4.101   6.425 -1.2959  0.0144 -0.2237
   78SOPE   O31 6965   5.420   4.309   6.379 -0.3238 -0.0352  0.0032
   78SOPE   C31 6966   5.418   4.279   6.251  0.5426 -0.1517 -0.2846
   78SOPE   O32 6967   5.374   4.172   6.206 -0.2540 -0.5635  0.5710
   78SOPE   C32 6968   5.444   4.409   6.171  0.1509  0.4260  0.2046
   78SOPE   H2X 6969   5.541   4.453   6.204 -0.1958  0.6444  0.9667
   78SOPE   H2Y 6970   5.357   4.477   6.184 -0.1138  0.3861 -1.2091
   78SOPE   C23 6971   5.866   4.401   6.453  0.2379 -0.5257 -0.6913
   78SOPE   H3R 6972   5.917   4.323   6.513 -0.7202 -1.2787 -0.8212
   78SOPE   H3S 6973   5.925   4.491   6.478 -0.1907 -0.1703 -0.9539
   78SOPE   C24 6974   5.877   4.372   6.304 -0.1126 -0.7705 -0.4497
   78SOPE   H4R 6975   5.829   4.273   6.287  0.3170 -0.6003 -3.0296
   78SOPE   H4S 6976   5.813   4.445   6.250  2.4006  1.6998 -0.3287
   78SOPE   C25 6977   6.017   4.380   6.242  0.6892 -0.0641 -0.4711
   78SOPE   H5R 6978   6.049   4.487   6.246  1.7880 -0.4300  1.4751
   78SOPE   H5S 6979   6.080   4.325   6.314  0.3485 -1.0207 -0.8909
   78SOPE   C26 6980   6.027   4.326   6.101 -1.0489  0.9017  0.6644
   78SOPE   H6R 6981   6.132   4.288   6.102 -1.4986 -0.4567  0.0234
   78SOPE   H6S 6982   5.970   4.235   6.074 -0.2243  1.0076 -1.7309
   78SOPE   C27 6983   6.005   4.422   5.987  0.9000 -0.0281 -0.0002
   78SOPE   H7R 6984   5.905   4.467   6.008  0.3114 -1.4791  0.4624
   78SOPE   H7S 6985   6.074   4.508   5.990  1.2194 -0.2522 -0.6602
   78SOPE   C28 6986   5.994   4.351   5.852 -0.2874 -0.5753 -0.4221
   78SOPE   H8R 6987   5.917   4.271   5.858 -0.6526 -0.4145 -2.3139
   78SOPE   H8S 6988   5.962   4.428   5.779  1.6338  0.7960  0.1183
   78SOPE   C29 6989   6.121   4.279   5.816 -0.3082  0.4507  0.0377
   78SOPE   H91 6990   6.166   4.204   5.882 -0.6325 -1.6954 -2.0478
   78SOPE  C210 6991   6.196   4.295   5.710 -0.0768  0.0919 -0.1725
   78SOPE  H101 6992   6.292   4.249   5.684  0.3440  2.1523 -2.5699
   78SOPE  C211 6993   6.182   4.400   5.600  0.1251  0.0237  0.2259
   78SOPE  H11R 6994   6.272   4.464   5.589  0.5993 -0.7373 -0.4308
   78SOPE  H11S 6995   6.089   4.460   5.614  0.2946  0.0061  1.5421
   78SOPE  C212 6996   6.162   4.329   5.462  0.5378 -0.1286  0.2737
   78SOPE  H12R 6997   6.152   4.409   5.385  0.1739 -0.3304  0.1066
   78SOPE  H12S 6998   6.065   4.276   5.462  1.0852 -1.1655 -0.0800
   78SOPE  C213 6999   6.273   4.236   5.424 -0.3474  0.0668 -0.4588
   78SOPE  H13R 7000   6.271   4.157   5.502  1.2541  0.2750 -0.1694
   78SOPE  H13S 7001   6.373   4.279   5.442 -1.2587  1.7811  0.8140
   78SOPE  C214 7002   6.251   4.170   5.287  0.2911 -0.1371 -0.1118
   78SOPE  H14R 7003   6.240   4.248   5.209 -2.7321 -0.1909  0.1235
   78SOPE  H14S 7004   6.151   4.121   5.288  0.3689 -0.4171  2.9604
   78SOPE  C215 7005   6.361   4.062   5.247  0.1145  0.5837 -0.0960
   78SOPE  H15R 7006   6.369   3.986   5.328  1.6510 -1.8515 -2.3542
   78SOPE  H15S 7007   6.460   4.114   5.244  1.5019 -1.8231  0.7054
   78SOPE  C216 7008   6.348   3.993   5.108  0.3337  0.0171 -0.3483
   78SOPE  H16R 7009   6.299   4.064   5.038 -0.9757 -0.9097 -0.4125
   78SOPE  H16S 7010   6.273   3.911   5.116  0.4551 -0.0064  0.7175
   78SOPE  C217 7011   6.473   3.941   5.049  0.5195 -0.7796 -0.1947
   78SOPE  H17R 7012   6.481   3.835   5.081 -2.8767 -0.6476  1.4851
   78SOPE  H17S 7013   6.560   4.004   5.079  0.7073 -0.7970 -0.6988
   78SOPE  C218 7014   6.470   3.954   4.900  0.4119 -0.3143  0.3707
   78SOPE  H18R 7015   6.433   4.052   4.862  1.7851  0.7361  1.6238
   78SOPE  H18S 7016   6.418   3.871   4.849  0.5641 -2.0752  2.8841
   78SOPE  H18T 7017   6.573   3.942   4.860  1.3279  1.8161  1.9130
   78SOPE   C33 7018   5.467   4.388   6.026 -0.6697  0.5277 -0.1131
   78SOPE   H3X 7019   5.481   4.484   5.974  1.4934  0.0731 -0.4505
   78SOPE   H3Y 7020   5.375   4.343   5.982 -0.9257  1.6602 -0.7764
   78SOPE   C34 7021   5.583   4.299   5.991  0.8042  0.5850  0.0736
   78SOPE   H4X 7022   5.538   4.197   5.988  1.6985  0.1987 -0.4432
   78SOPE   H4Y 7023   5.658   4.308   6.072 -0.0414  2.4078  0.7063
   78SOPE   C35 7024   5.638   4.330   5.852  0.1488 -0.2952 -0.1851
   78SOPE   H5X 7025   5.728   4.266   5.839  1.5256  1.3549  0.7181
   78SOPE   H5Y 7026   5.669   4.437   5.850 -0.4169 -0.1286 -0.2948
   78SOPE   C36 7027   5.555   4.309   5.728  0.8675  0.9108  0.0308
   78SOPE   H6X 7028   5.464   4.372   5.732  0.0194 -0.1327 -1.8535
   78SOPE   H6Y 7029   5.528   4.201   5.725 -1.8261  1.4769  1.1055
   78SOPE   C37 7030   5.639   4.342   5.600 -0.1211  0.3547  0.6766
   78SOPE   H7X 7031   5.743   4.303   5.607  0.6067  1.6320 -1.8958
   78SOPE   H7Y 7032   5.641   4.453   5.601 -0.6264  0.4167  3.5239
   78SOPE   C38 7033   5.555   4.288   5.480  0.1918  0.1657 -0.5974
   78SOPE   H8X 7034   5.456   4.334   5.500  0.8872  1.9211 -0.9434
   78SOPE   H8Y 7035   5.538   4.179   5.474 -2.7537  0.5856 -2.1194
   78SOPE   C39 7036   5.613   4.335   5.342 -0.2005  0.8954  0.4353
   78SOPE   H9X 7037   5.609   4.445   5.331 -0.2658  0.8604  0.0875
   78SOPE   H9Y 7038   5.552   4.303   5.255  0.3451  2.8191 -0.7071
   78SOPE  C310 7039   5.752   4.286   5.305  0.1270 -0.5763 -0.2194
   78SOPE  H10X 7040   5.769   4.178   5.284  3.1131  0.1778 -2.2764
   78SOPE  H10Y 7041   5.814   4.320   5.389 -1.5685 -0.0179  0.8519
   78SOPE  C311 7042   5.799   4.363   5.174  0.2168 -0.1074 -0.2104
   78SOPE  H11X 7043   5.802   4.474   5.186  2.4370 -0.1789  0.3422
   78SOPE  H11Y 7044   5.727   4.341   5.092 -1.3471  0.5052  0.9375
   78SOPE  C312 7045   5.941   4.325   5.128  0.0318 -0.2164 -0.3504
   78SOPE  H12X 7046   5.939   4.214   5.134 -1.0622 -0.1700  0.5210
   78SOPE  H12Y 7047   6.018   4.354   5.202  0.2450 -1.6726  0.0264
   78SOPE  C313 7048   5.977   4.364   4.994 -0.3866  1.0788  0.8379
   78SOPE  H13X 7049   5.985   4.475   4.987 -0.3663  1.0231 -0.0752
   78SOPE  H13Y 7050   5.892   4.334   4.929  1.6323 -1.4490 -0.8133
   78SOPE  C314 7051   6.108   4.296   4.941 -0.5722  0.2113 -0.0212
   78SOPE  H14X 7052   6.114   4.189   4.971  1.8078  0.5178  0.8429
   78SOPE  H14Y 7053   6.190   4.352   4.990 -0.2553 -1.4758  1.5129
   78SOPE  C315 7054   6.117   4.309   4.785 -0.8925  0.6492  0.6652
   78SOPE  H15X 7055   6.127   4.417   4.760 -0.0589  0.2023 -1.1189
   78SOPE  H15Y 7056   6.027   4.270   4.732 -2.1533  0.6264  2.7182
   78SOPE  C316 7057   6.240   4.247   4.722 -0.3272  0.0289  0.0724
   78SOPE  H16X 7058   6.256   4.141   4.751  0.9830  0.0077 -0.6481
   78SOPE  H16Y 7059   6.325   4.295   4.774 -0.3087 -1.3289  1.3768
   78SOPE  C317 7060   6.258   4.279   4.570 -0.0464 -0.2156  0.1025
   78SOPE  H17X 7061   6.204   4.368   4.532 -2.0250 -1.2948  0.2619
   78SOPE  H17Y 7062   6.205   4.198   4.515  2.3157  0.4127 -3.4886
   78SOPE  C318 7063   6.407   4.272   4.522 -0.7527 -0.5707 -0.1296
   78SOPE  H18X 7064   6.475   4.354   4.556  0.6082 -1.0443 -1.5832
   78SOPE  H18Y 7065   6.410   4.264   4.412  0.7688 -2.3815  0.0118
   78SOPE  H18Z 7066   6.452   4.175   4.551 -0.2452 -0.4515 -0.5084
   79SOPE     N 7067   6.580   1.851   6.495  0.1206 -0.3916  0.4998
   79SOPE   HN1 7068   6.562   1.953   6.483  0.3643 -0.6203 -2.2906
   79SOPE   HN2 7069   6.676   1.836   6.458  0.5207 -2.3221  2.1388
   79SOPE   HN3 7070   6.503   1.801   6.445  0.1194  0.7046 -0.6340
   79SOPE   C12 7071   6.577   1.835   6.640 -0.2514  0.0981 -0.5093
   79SOPE  H12A 7072   6.615   1.929   6.685 -1.0778  0.6089 -0.8432
   79SOPE  H12B 7073   6.641   1.749   6.669 -0.3464  0.2806  0.2780
   79SOPE   C11 7074   6.440   1.805   6.700 -0.5741  0.7175  0.4210
   79SOPE  H11A 7075   6.363   1.883   6.683 -1.6146 -0.1303  1.1362
   79SOPE  H11B 7076   6.457   1.795   6.809  1.9260  2.5682  0.2867
   79SOPE     P 7077   6.244   1.639   6.679 -0.5382  0.1548 -0.0880
   79SOPE   O13 7078   6.209   1.686   6.818  0.2952 -0.0487 -0.2066
   79SOPE   O14 7079   6.235   1.492   6.655 -0.0833  0.0527  0.2606
   79SOPE   O12 7080   6.388   1.680   6.636 -0.4217  0.0164 -0.3317
   79SOPE   O11 7081   6.149   1.709   6.574  0.0974 -0.1609  0.2489
   79SOPE    C1 7082   6.087   1.833   6.617  0.1888 -0.5428 -0.2691
   79SOPE    HA 7083   6.136   1.888   6.700  1.8405  0.0594 -1.5571
   79SOPE    HB 7084   5.980   1.815   6.641  0.6981 -2.6402  0.6834
   79SOPE    C2 7085   6.078   1.935   6.497  0.0272 -0.5034 -0.2755
   79SOPE    HS 7086   5.998   2.001   6.537  1.5040  0.0587  2.0124
   79SOPE   O21 7087   6.061   1.881   6.363  0.5032 -0.2707 -1.0551
   79SOPE   C21 7088   5.942   1.863   6.323  0.0932 -0.4494 -0.1284
   79SOPE   O22 7089   5.840   1.882   6.390 -0.8483 -0.5720  0.1536
   79SOPE   C22 7090   5.939   1.834   6.174 -0.3038 -0.4289  0.2385
   79SOPE   H2R 7091   5.862   1.758   6.149 -1.3926  0.2040  1.5602
   79SOPE   H2S 7092   6.038   1.790   6.149  0.5537  1.8653 -0.6182
   79SOPE    C3 7093   6.204   2.023   6.496 -0.3037  0.1257  0.0953
   79SOPE    HX 7094   6.290   1.956   6.475  0.3379  0.1835  2.3147
   79SOPE    HY 7095   6.225   2.053   6.601  1.1820  0.1183 -0.1702
   79SOPE   O31 7096   6.200   2.133   6.399 -0.0325 -0.0093 -0.7194
   79SOPE   C31 7097   6.181   2.256   6.455 -0.2038 -0.1214  0.6189
   79SOPE   O32 7098   6.170   2.283   6.571 -0.8431 -0.3436 -0.4258
   79SOPE   C32 7099   6.176   2.369   6.347 -0.0579 -0.3470  0.3612
   79SOPE   H2X 7100   6.268   2.430   6.349  0.5419 -1.1587 -0.9072
   79SOPE   H2Y 7101   6.097   2.431   6.394  2.0635  0.3299  3.3302
   79SOPE   C23 7102   5.919   1.968   6.089  0.0410 -0.2145  0.1331
   79SOPE   H3R 7103   6.002   2.039   6.109 -0.3424  0.8107 -1.6519
   79SOPE   H3S 7104   5.827   2.016   6.128  0.6568  0.0790  1.2383
   79SOPE   C24 7105   5.902   1.940   5.935 -0.4725  0.9036  0.4809
   79SOPE   H4R 7106   6.006   1.944   5.897 -0.9687  3.7630 -0.8665
   79SOPE   H4S 7107   5.853   1.840   5.927 -0.3052  0.8676 -0.1511
   79SOPE   C25 7108   5.815   2.038   5.855  0.0264  0.2036 -0.2265
   79SOPE   H5R 7109   5.715   2.027   5.902  1.1644 -2.6744  1.8820
   79SOPE   H5S 7110   5.845   2.144   5.850 -1.3598  0.6234  0.0614
   79SOPE   C26 7111   5.804   2.014   5.704  0.4871 -0.4009 -0.0562
   79SOPE   H6R 7112   5.755   1.914   5.692  0.9409 -0.7341  0.7667
   79SOPE   H6S 7113   5.727   2.089   5.676  0.0502 -0.4102  1.0829
   79SOPE   C27 7114   5.933   2.022   5.615 -0.5567  0.4707  0.5631
   79SOPE   H7R 7115   5.977   2.123   5.629 -2.2479  1.2238  0.8164
   79SOPE   H7S 7116   6.007   1.954   5.662  1.5209  1.4412 -1.1352
   79SOPE   C28 7117   5.923   1.997   5.464 -0.6884 -0.0150  0.3543
   79SOPE   H8R 7118   5.889   1.898   5.429 -0.1107  0.5107 -1.8389
   79SOPE   H8S 7119   5.847   2.068   5.423  1.0664  0.5413 -2.1804
   79SOPE   C29 7120   6.054   2.035   5.389 -0.3448 -0.4857 -0.3777
   79SOPE   H91 7121   6.095   2.135   5.408  0.3288 -0.8882  0.3418
   79SOPE  C210 7122   6.124   1.962   5.302  0.1478  1.0549  0.9933
   79SOPE  H101 7123   6.212   2.002   5.248  0.2577 -1.9876 -1.3202
   79SOPE  C211 7124   6.094   1.828   5.248 -0.0220  0.4955  0.4809
   79SOPE  H11R 7125   5.999   1.826   5.190 -0.2348 -3.8354  0.6865
   79SOPE  H11S 7126   6.081   1.754   5.330  0.0908 -0.0003  0.0527
   79SOPE  C212 7127   6.203   1.759   5.155  0.1203  0.6359 -0.7851
   79SOPE  H12R 7128   6.159   1.661   5.125 -1.0225  0.8174  0.2132
   79SOPE  H12S 7129   6.298   1.736   5.208 -1.4968 -1.4042  1.4581
   79SOPE  C213 7130   6.223   1.842   5.029  0.2103  0.9214  0.4839
   79SOPE  H13R 7131   6.249   1.945   5.062  0.0164  0.2596  2.8708
   79SOPE  H13S 7132   6.128   1.851   4.972 -0.3607 -2.5568  0.6533
   79SOPE  C214 7133   6.335   1.785   4.941 -0.1864 -0.1006 -0.3252
   79SOPE  H14R 7134   6.413   1.739   5.005 -0.9937 -0.3897  0.4746
   79SOPE  H14S 7135   6.372   1.869   4.878 -1.0903  1.3072  0.9659
   79SOPE  C215 7136   6.290   1.666   4.851 -0.4675 -1.0365  0.2097
   79SOPE  H15R 7137   6.204   1.610   4.894  0.0581 -0.8578  1.5122
   79SOPE  H15S 7138   6.382   1.604   4.847  1.7848  1.9247  2.0630
   79SOPE  C216 7139   6.257   1.701   4.706 -0.1742  0.5096  0.4909
   79SOPE  H16R 7140   6.351   1.724   4.651 -0.3711 -0.6972 -0.3975
   79SOPE  H16S 7141   6.194   1.793   4.707  0.6284  1.1178  2.9109
   79SOPE  C217 7142   6.170   1.609   4.630 -0.2473 -0.2216 -0.4908
   79SOPE  H17R 7143   6.065   1.630   4.659  0.8653  1.8295  2.5010
   79SOPE  H17S 7144   6.191   1.510   4.677 -0.1814  0.4045  0.8515
   79SOPE  C218 7145   6.206   1.595   4.481  0.4466 -0.0447 -0.5108
   79SOPE  H18R 7146   6.190   1.695   4.437 -1.7005 -0.1385 -0.0395
   79SOPE  H18S 7147   6.146   1.518   4.428 -0.7353 -0.8880  1.8750
   79SOPE  H18T 7148   6.312   1.563   4.471  0.8756  0.9694  0.5364
   79SOPE   C33 7149   6.143   2.321   6.200 -0.5487 -0.6900  0.0086
   79SOPE   H3X 7150   6.061   2.247   6.210  0.6556 -1.8366  1.9912
   79SOPE   H3Y 7151   6.232   2.271   6.159  0.2601  1.0491 -0.4650
   79SOPE   C34 7152   6.100   2.418   6.083  0.0864  0.3213  0.3162
   79SOPE   H4X 7153   6.187   2.487   6.071 -1.2390  2.0871  0.5293
   79SOPE   H4Y 7154   6.010   2.471   6.121 -0.3872 -0.8294  0.8240
   79SOPE   C35 7155   6.060   2.356   5.953  0.3721 -0.1276  0.5405
   79SOPE   H5X 7156   5.982   2.280   5.975 -0.3996  0.8984  1.5321
   79SOPE   H5Y 7157   6.147   2.306   5.906 -0.3823 -1.5755  0.6380
   79SOPE   C36 7158   6.008   2.451   5.844  0.1081 -0.1435  0.3646
   79SOPE   H6X 7159   6.078   2.537   5.833 -0.0842 -0.0924 -0.4820
   79SOPE   H6Y 7160   5.905   2.487   5.862 -0.0319  0.3351 -1.2323
   79SOPE   C37 7161   6.004   2.376   5.708 -0.5045  0.3790  0.9623
   79SOPE   H7X 7162   5.917   2.308   5.720 -1.5399  1.3882 -0.5309
   79SOPE   H7Y 7163   6.093   2.314   5.686 -0.7601 -0.6327  2.6215
   79SOPE   C38 7164   5.974   2.473   5.591 -0.1372  0.3915  1.2002
   79SOPE   H8X 7165   6.044   2.560   5.593  0.8054 -0.2528 -1.1008
   79SOPE   H8Y 7166   5.871   2.515   5.603 -0.7325 -0.9172  0.8516
   79SOPE   C39 7167   5.972   2.403   5.463 -0.4314 -0.5407  0.3336
   79SOPE   H9X 7168   5.877   2.345   5.458 -1.0320  0.3536  0.9605
   79SOPE   H9Y 7169   6.067   2.346   5.451  0.0757 -0.5343  3.5376
   79SOPE  C310 7170   5.945   2.500   5.345  0.2179 -0.7686  0.3563
   79SOPE  H10X 7171   6.032   2.566   5.328 -0.6161 -0.0235 -1.2206
   79SOPE  H10Y 7172   5.867   2.570   5.383 -0.8222 -0.9220 -1.3615
   79SOPE  C311 7173   5.898   2.422   5.221  0.0801 -0.1478  0.0075
   79SOPE  H11X 7174   5.796   2.390   5.252 -1.2574  1.8103 -2.0915
   79SOPE  H11Y 7175   5.970   2.339   5.207 -1.3854 -1.2529 -1.5217
   79SOPE  C312 7176   5.888   2.507   5.093  0.0162 -0.3548 -0.0380
   79SOPE  H12X 7177   5.988   2.546   5.064  0.1888  0.2874  1.3723
   79SOPE  H12Y 7178   5.825   2.593   5.121  0.4432 -0.0065 -0.1388
   79SOPE  C313 7179   5.838   2.434   4.964  0.4349  0.2918  0.1804
   79SOPE  H13X 7180   5.758   2.366   5.000 -0.7986  1.4577 -0.3076
   79SOPE  H13Y 7181   5.911   2.370   4.910  0.5826  1.7371 -1.4139
   79SOPE  C314 7182   5.779   2.521   4.851  0.2291  0.2025  0.3617
   79SOPE  H14X 7183   5.733   2.458   4.772  1.2133 -0.6417  0.4516
   79SOPE  H14Y 7184   5.866   2.577   4.810  0.8261  0.7071  2.2189
   79SOPE  C315 7185   5.676   2.625   4.898  0.4393  0.0166  0.1504
   79SOPE  H15X 7186   5.669   2.698   4.814  4.1292 -0.2426 -0.5382
   79SOPE  H15Y 7187   5.718   2.684   4.982 -1.8806  2.0509  0.0334
   79SOPE  C316 7188   5.538   2.564   4.928 -0.3175 -0.3303 -0.2286
   79SOPE  H16X 7189   5.495   2.625   5.010 -0.2683  0.4392 -0.7712
   79SOPE  H16Y 7190   5.555   2.464   4.974  0.1898  0.6967  1.9472
   79SOPE  C317 7191   5.438   2.563   4.813 -0.1902  0.0441 -0.6502
   79SOPE  H17X 7192   5.488   2.549   4.715 -0.5973 -0.0464 -0.8464
   79SOPE  H17Y 7193   5.388   2.662   4.802 -0.4409  0.1806  1.2773
   79SOPE  C318 7194   5.330   2.453   4.806  0.3902 -0.1754  0.3386
   79SOPE  H18X 7195   5.369   2.350   4.820  0.1813 -0.5190 -1.3955
   79SOPE  H18Y 7196   5.267   2.455   4.714  0.3798  2.9380  0.2943
   79SOPE  H18Z 7197   5.262   2.474   4.892 -0.7463 -0.4241 -0.4815
   80SOPE     N 7198   5.429   3.283   7.256  0.2845  0.4388 -1.1914
   80SOPE   HN1 7199   5.345   3.223   7.265  1.2936 -0.7526  1.1024
   80SOPE   HN2 7200   5.474   3.237   7.174  0.8072 -3.2162  0.8923
   80SOPE   HN3 7201   5.480   3.272   7.346 -2.7053 -0.1167  0.5812
   80SOPE   C12 7202   5.393   3.425   7.235  0.5545 -0.2402  0.7883
   80SOPE  H12A 7203   5.485   3.484   7.217 -0.1170  0.2891 -1.2491
   80SOPE  H12B 7204   5.338   3.463   7.324  0.1912  0.2740  0.3565
   80SOPE   C11 7205   5.294   3.451   7.115  0.2789  0.6341  0.4866
   80SOPE  H11A 7206   5.326   3.399   7.023  1.2686  0.3553  0.9754
   80SOPE  H11B 7207   5.296   3.558   7.087  2.5147  0.8442  1.2635
   80SOPE     P 7208   5.059   3.498   7.211 -0.0990 -0.8007 -0.1710
   80SOPE   O13 7209   5.115   3.560   7.333  0.2288 -0.0337  0.3301
   80SOPE   O14 7210   4.933   3.429   7.224  0.5512  0.1944 -0.0708
   80SOPE   O12 7211   5.166   3.403   7.141  0.1729 -0.5085 -0.4048
   80SOPE   O11 7212   5.032   3.610   7.096 -0.0470  0.4689 -0.0404
   80SOPE    C1 7213   5.029   3.583   6.958 -0.2125 -0.2237  0.4829
   80SOPE    HA 7214   5.121   3.530   6.925 -1.6207 -1.1029 -2.3971
   80SOPE    HB 7215   5.035   3.679   6.902 -1.9553  1.3649  2.8316
   80SOPE    C2 7216   4.910   3.506   6.900  0.0558 -0.0796 -0.6212
   80SOPE    HS 7217   4.911   3.404   6.944 -0.2112 -0.6729 -1.9391
   80SOPE   O21 7218   4.930   3.501   6.763  0.2060  0.5439  0.1157
   80SOPE   C21 7219   4.867   3.405   6.694 -0.1448  0.2350 -0.4268
   80SOPE   O22 7220   4.792   3.322   6.746 -0.0403 -0.0918 -0.1900
   80SOPE   C22 7221   4.891   3.435   6.541  0.3787  0.1355 -0.1861
   80SOPE   H2R 7222   5.000   3.456   6.535  0.2402  0.5318 -1.6499
   80SOPE   H2S 7223   4.825   3.520   6.512  0.1585 -0.3594 -1.1818
   80SOPE    C3 7224   4.778   3.570   6.945 -0.6029  0.5251 -0.0343
   80SOPE    HX 7225   4.758   3.559   7.054 -2.5778  0.1810 -0.3869
   80SOPE    HY 7226   4.686   3.524   6.902 -0.5178  1.1580 -0.9249
   80SOPE   O31 7227   4.781   3.711   6.912  0.4559  0.4608  0.5286
   80SOPE   C31 7228   4.742   3.732   6.779 -0.7330  0.3168  0.4631
   80SOPE   O32 7229   4.683   3.652   6.711 -0.1807 -0.3814  0.3692
   80SOPE   C32 7230   4.781   3.873   6.738 -0.3680  0.7729 -0.1116
   80SOPE   H2X 7231   4.759   3.940   6.824 -1.4432  2.1700 -1.4186
   80SOPE   H2Y 7232   4.716   3.917   6.660 -1.2382  0.7717  0.6000
   80SOPE   C23 7233   4.868   3.310   6.458 -0.2436  0.3432 -0.5413
   80SOPE   H3R 7234   4.777   3.248   6.473  0.7220 -0.7975  0.8267
   80SOPE   H3S 7235   4.954   3.240   6.460 -0.4077  0.0680 -2.0605
   80SOPE   C24 7236   4.853   3.350   6.314 -0.1854 -0.5838  0.1979
   80SOPE   H4R 7237   4.835   3.263   6.249  1.3737  1.2488 -2.9185
   80SOPE   H4S 7238   4.782   3.430   6.284 -0.2408 -1.6923 -2.9407
   80SOPE   C25 7239   4.981   3.409   6.253 -0.1932 -0.4131  0.8158
   80SOPE   H5R 7240   4.972   3.520   6.260  1.3088 -0.0803 -1.5248
   80SOPE   H5S 7241   5.072   3.376   6.307 -0.7744 -3.4152  0.1488
   80SOPE   C26 7242   4.990   3.365   6.103  0.1503  0.1507 -0.4341
   80SOPE   H6R 7243   5.099   3.368   6.080  0.3983 -0.6300  0.5466
   80SOPE   H6S 7244   4.959   3.259   6.095  2.2064 -0.7308  1.8701
   80SOPE   C27 7245   4.918   3.462   6.012 -0.1821 -0.5569  0.6173
   80SOPE   H7R 7246   4.815   3.482   6.049 -0.1107  0.8794  0.1134
   80SOPE   H7S 7247   4.968   3.561   6.011 -0.9247 -0.1819  0.3641
   80SOPE   C28 7248   4.906   3.410   5.870 -0.8013  0.2184  0.0770
   80SOPE   H8R 7249   4.856   3.311   5.879 -0.8618  0.0209 -2.0400
   80SOPE   H8S 7250   4.852   3.475   5.798  1.8822  0.1794 -2.1308
   80SOPE   C29 7251   5.044   3.395   5.807  0.1632 -0.0901  0.0198
   80SOPE   H91 7252   5.121   3.431   5.877  1.3014 -1.6435 -0.3687
   80SOPE  C210 7253   5.075   3.360   5.683 -0.0805 -0.8403 -0.2538
   80SOPE  H101 7254   5.179   3.349   5.648 -0.1927 -0.2296 -0.7940
   80SOPE  C211 7255   4.976   3.322   5.571 -0.1551  0.6873 -0.2829
   80SOPE  H11R 7256   4.872   3.301   5.603 -0.7615  0.2124 -2.3861
   80SOPE  H11S 7257   5.014   3.225   5.532 -1.9820 -0.6034  0.9859
   80SOPE  C212 7258   4.966   3.431   5.462  0.0218 -0.4040 -0.3073
   80SOPE  H12R 7259   5.064   3.476   5.436  0.6951 -1.0448  1.0107
   80SOPE  H12S 7260   4.905   3.506   5.516  0.1531 -1.0694  0.7913
   80SOPE  C213 7261   4.873   3.397   5.333  0.0981 -0.5384  0.2671
   80SOPE  H13R 7262   4.777   3.453   5.336  0.9605  1.1608 -1.2726
   80SOPE  H13S 7263   4.849   3.289   5.330 -2.9429  0.0849 -1.8460
   80SOPE  C214 7264   4.937   3.434   5.195 -0.9191 -0.2231  0.7023
   80SOPE  H14R 7265   4.867   3.374   5.133  0.2130 -1.6541  0.7639
   80SOPE  H14S 7266   5.037   3.400   5.160 -1.2787  0.3376 -0.9535
   80SOPE  C215 7267   4.919   3.583   5.153 -0.6039 -0.5503 -0.2983
   80SOPE  H15R 7268   4.976   3.650   5.222  0.9982 -0.6351 -1.4991
   80SOPE  H15S 7269   4.812   3.614   5.157 -0.1818  0.9027  0.4223
   80SOPE  C216 7270   4.971   3.604   5.013 -0.0247  0.2747 -0.1189
   80SOPE  H16R 7271   4.913   3.528   4.956 -2.6505  1.3689  0.9312
   80SOPE  H16S 7272   5.073   3.570   4.986 -0.4571 -0.0273 -1.4167
   80SOPE  C217 7273   4.938   3.740   4.940 -0.0852  0.1235 -0.0742
   80SOPE  H17R 7274   4.960   3.832   4.998 -0.1207 -1.1018  1.9705
   80SOPE  H17S 7275   4.827   3.742   4.937 -0.1424 -1.6110 -0.0973
   80SOPE  C218 7276   5.004   3.754   4.803 -0.0059  0.4907  0.5485
   80SOPE  H18R 7277   4.976   3.855   4.767 -0.2761  0.3434  0.3452
   80SOPE  H18S 7278   4.989   3.667   4.735  0.5658  0.0392  0.9793
   80SOPE  H18T 7279   5.115   3.758   4.800 -0.0194  1.9261 -3.9602
   80SOPE   C33 7280   4.923   3.888   6.686 -0.2968  0.2831 -0.1250
   80SOPE   H3X 7281   4.983   3.833   6.762  0.5249  0.3207 -0.7290
   80SOPE   H3Y 7282   4.952   3.995   6.688  4.8777 -0.8399 -0.9611
   80SOPE   C34 7283   4.951   3.832   6.543 -0.0248 -0.2817 -0.1281
   80SOPE   H4X 7284   4.952   3.721   6.536  0.7246 -0.2081 -1.2680
   80SOPE   H4Y 7285   5.050   3.874   6.518 -0.3713  0.5030 -0.2065
   80SOPE   C35 7286   4.849   3.880   6.433  0.0265  0.4213  0.5523
   80SOPE   H5X 7287   4.816   3.984   6.455  0.3598  0.3901  1.2423
   80SOPE   H5Y 7288   4.754   3.826   6.456  1.3731 -1.0825  3.1694
   80SOPE   C36 7289   4.888   3.848   6.287 -0.7087 -0.1059  0.1522
   80SOPE   H6X 7290   4.894   3.739   6.267  0.9958  0.4922 -3.2705
   80SOPE   H6Y 7291   4.983   3.900   6.266 -0.1548 -1.6492 -1.3964
   80SOPE   C37 7292   4.781   3.900   6.191  0.3951 -0.1565  0.1916
   80SOPE   H7X 7293   4.782   4.011   6.201  0.6230 -0.2178  0.8864
   80SOPE   H7Y 7294   4.679   3.860   6.210 -0.1831  1.6927  1.1906
   80SOPE   C38 7295   4.823   3.873   6.051 -0.0821 -0.4550  0.1426
   80SOPE   H8X 7296   4.824   3.763   6.034  0.4148 -0.7072  1.6732
   80SOPE   H8Y 7297   4.925   3.909   6.027 -0.4220 -0.1141 -0.8254
   80SOPE   C39 7298   4.740   3.938   5.943  0.2116  0.2405  0.9323
   80SOPE   H9X 7299   4.753   4.048   5.944 -0.7050  0.4606 -1.8753
   80SOPE   H9Y 7300   4.632   3.914   5.952  0.1022 -0.9457 -2.3401
   80SOPE  C310 7301   4.784   3.888   5.797 -0.3550 -0.5539 -0.7430
   80SOPE  H10X 7302   4.753   3.785   5.769 -1.8373 -0.1074 -0.8298
   80SOPE  H10Y 7303   4.892   3.908   5.782 -0.7411  2.2507 -0.2986
   80SOPE  C311 7304   4.697   3.970   5.711  0.1667  0.0313 -0.0638
   80SOPE  H11X 7305   4.699   4.080   5.728 -1.3934  0.4543 -2.1427
   80SOPE  H11Y 7306   4.586   3.960   5.714  0.2482 -0.7750  0.6602
   80SOPE  C312 7307   4.717   3.938   5.562  0.3652 -0.0869  0.1328
   80SOPE  H12X 7308   4.824   3.915   5.543  0.7101  1.8531 -0.4684
   80SOPE  H12Y 7309   4.679   4.025   5.505 -1.9026 -0.5359  0.8672
   80SOPE  C313 7310   4.629   3.820   5.505 -1.2403 -0.3032 -0.2736
   80SOPE  H13X 7311   4.523   3.826   5.537 -2.0303  0.4524 -2.7558
   80SOPE  H13Y 7312   4.682   3.732   5.546 -0.2636  0.1184 -0.6095
   80SOPE  C314 7313   4.623   3.819   5.358 -0.0921  0.0437 -0.4531
   80SOPE  H14X 7314   4.728   3.817   5.322  0.0932  0.7204  0.0348
   80SOPE  H14Y 7315   4.581   3.913   5.315  0.0863 -0.1028 -0.9626
   80SOPE  C315 7316   4.546   3.703   5.292 -0.3457 -0.2200 -0.6395
   80SOPE  H15X 7317   4.439   3.709   5.323 -0.2172  2.1700 -0.4615
   80SOPE  H15Y 7318   4.590   3.609   5.332  1.5403  0.5257 -0.8683
   80SOPE  C316 7319   4.539   3.700   5.142  0.0797 -0.1299  0.0307
   80SOPE  H16X 7320   4.639   3.713   5.094  0.2240 -0.1223  0.3298
   80SOPE  H16Y 7321   4.475   3.777   5.094 -0.6977 -0.4894  0.4705
   80SOPE  C317 7322   4.485   3.559   5.100 -0.4508  0.2791 -0.0876
   80SOPE  H17X 7323   4.382   3.538   5.136  0.1861 -2.2876  0.4425
   80SOPE  H17Y 7324   4.547   3.482   5.150 -0.3490  0.2882 -0.2019
   80SOPE  C318 7325   4.491   3.529   4.949 -0.2122 -0.2507 -0.0482
   80SOPE  H18X 7326   4.590   3.526   4.900 -0.6722 -3.0172 -0.9908
   80SOPE  H18Y 7327   4.427   3.592   4.884 -0.6392 -0.5266  0.0954
   80SOPE  H18Z 7328   4.446   3.427   4.944  1.5830 -1.1780  1.6025
   81SOPE     N 7329   1.035   1.697   7.143  0.1571  0.1110  0.7704
   81SOPE   HN1 7330   1.022   1.799   7.125 -0.9597 -0.1001  0.2880
   81SOPE   HN2 7331   0.953   1.663   7.198 -0.5591  0.5259 -0.0077
   81SOPE   HN3 7332   1.112   1.675   7.208 -1.7215  0.9408  3.4896
   81SOPE   C12 7333   1.033   1.622   7.014  0.3131 -0.0177 -0.3661
   81SOPE  H12A 7334   1.024   1.700   6.935  1.5972  0.4455 -0.0690
   81SOPE  H12B 7335   0.940   1.561   7.005  1.2577 -1.4624 -0.7260
   81SOPE   C11 7336   1.168   1.550   7.009  0.0331 -0.4176  0.0374
   81SOPE  H11A 7337   1.164   1.483   6.921 -1.4527 -1.4477  0.8515
   81SOPE  H11B 7338   1.184   1.486   7.098  1.0839  0.2666  0.3657
   81SOPE     P 7339   1.352   1.683   6.876  0.1417  0.4509  0.4040
   81SOPE   O13 7340   1.452   1.586   6.833 -0.6564  0.3083  0.3913
   81SOPE   O14 7341   1.401   1.818   6.898 -0.0356  0.2915 -0.5882
   81SOPE   O12 7342   1.283   1.638   7.005  0.5718 -0.0129  0.3463
   81SOPE   O11 7343   1.233   1.693   6.769  0.2151 -0.1400 -1.1960
   81SOPE    C1 7344   1.174   1.803   6.707 -0.3486  0.1223  0.0021
   81SOPE    HA 7345   1.171   1.894   6.770 -2.3621  0.8588 -1.0870
   81SOPE    HB 7346   1.068   1.775   6.690  0.1082 -2.6970  1.2567
   81SOPE    C2 7347   1.237   1.840   6.570 -0.3343 -0.9961  0.7654
   81SOPE    HS 7348   1.185   1.928   6.526  0.9676 -0.2745  0.6289
   81SOPE   O21 7349   1.235   1.735   6.474  0.0203  0.8722  0.0150
   81SOPE   C21 7350   1.117   1.703   6.420  0.2351  0.8868 -1.2580
   81SOPE   O22 7351   1.018   1.764   6.436 -0.2920  0.0536 -0.3400
   81SOPE   C22 7352   1.124   1.573   6.333  0.9193  0.0595 -0.2144
   81SOPE   H2R 7353   1.019   1.543   6.313  0.1753  0.8067  2.2280
   81SOPE   H2S 7354   1.176   1.492   6.388  0.3845 -1.1836 -1.4770
   81SOPE    C3 7355   1.383   1.892   6.586 -0.2940  0.1984  0.4673
   81SOPE    HX 7356   1.438   1.821   6.651 -0.3197  1.2168  1.6379
   81SOPE    HY 7357   1.380   1.984   6.648  0.4772  1.0893 -0.7569
   81SOPE   O31 7358   1.443   1.910   6.456  0.4195  0.2653  0.2779
   81SOPE   C31 7359   1.426   2.024   6.394 -0.2645 -0.3614 -0.9207
   81SOPE   O32 7360   1.361   2.121   6.436 -0.1787 -0.3021  0.2934
   81SOPE   C32 7361   1.530   2.028   6.277  0.1953 -0.0479  0.2672
   81SOPE   H2X 7362   1.560   1.921   6.270 -2.6699 -0.8955 -0.3254
   81SOPE   H2Y 7363   1.614   2.096   6.302  1.1730  0.3693 -3.5615
   81SOPE   C23 7364   1.204   1.594   6.204 -0.2012 -0.2454  0.1110
   81SOPE   H3R 7365   1.228   1.495   6.160 -2.3246 -0.7540  0.0302
   81SOPE   H3S 7366   1.298   1.650   6.226 -0.9876  0.8827  0.6882
   81SOPE   C24 7367   1.120   1.674   6.091 -0.4052  1.0016  0.0551
   81SOPE   H4R 7368   1.048   1.605   6.043 -0.4577  1.2198 -0.1867
   81SOPE   H4S 7369   1.064   1.765   6.123  0.1663  1.8389 -1.2149
   81SOPE   C25 7370   1.217   1.727   5.986 -0.0128  0.5336 -0.2090
   81SOPE   H5R 7371   1.183   1.814   5.926  2.1180  1.2354 -0.4677
   81SOPE   H5S 7372   1.310   1.761   6.036 -0.3755  0.5856  0.4472
   81SOPE   C26 7373   1.270   1.618   5.882 -0.5482 -0.3357  0.1487
   81SOPE   H6R 7374   1.297   1.525   5.936 -0.9686 -1.2333 -1.1383
   81SOPE   H6S 7375   1.184   1.587   5.819 -0.4900  0.1401 -0.1747
   81SOPE   C27 7376   1.396   1.651   5.795  0.2441  0.1614 -0.2720
   81SOPE   H7R 7377   1.388   1.744   5.734 -0.8645  0.1046 -0.2312
   81SOPE   H7S 7378   1.484   1.679   5.856  0.1571  0.9515 -0.5032
   81SOPE   C28 7379   1.427   1.532   5.697  0.0602 -0.0058  0.3132
   81SOPE   H8R 7380   1.437   1.438   5.755  3.1792 -0.3742 -0.5980
   81SOPE   H8S 7381   1.331   1.520   5.643  0.0127  1.2355  0.0883
   81SOPE   C29 7382   1.537   1.537   5.595 -0.3453 -0.8093  0.2532
   81SOPE   H91 7383   1.638   1.568   5.625  0.3462 -0.4770 -2.2017
   81SOPE  C210 7384   1.518   1.510   5.461 -1.0170 -0.5006 -0.0484
   81SOPE  H101 7385   1.608   1.513   5.397  0.0847  1.8442  1.4676
   81SOPE  C211 7386   1.396   1.446   5.405 -0.0166 -0.3663  0.5305
   81SOPE  H11R 7387   1.321   1.527   5.395 -0.5409 -0.6088  2.1745
   81SOPE  H11S 7388   1.352   1.363   5.464  2.3235 -0.0230  2.9350
   81SOPE  C212 7389   1.417   1.394   5.260 -0.3279 -0.0075  0.1100
   81SOPE  H12R 7390   1.480   1.303   5.270  0.5297  0.3800 -1.4665
   81SOPE  H12S 7391   1.481   1.462   5.200 -0.9262 -0.4663 -1.0645
   81SOPE  C213 7392   1.292   1.374   5.175  0.4564 -0.4273 -0.4955
   81SOPE  H13R 7393   1.238   1.471   5.172 -0.7102 -1.0166  0.3549
   81SOPE  H13S 7394   1.219   1.316   5.236 -1.2988 -0.1448 -2.2120
   81SOPE  C214 7395   1.318   1.306   5.041  0.4701  0.4628  0.4781
   81SOPE  H14R 7396   1.321   1.200   5.074  1.8320  0.4854  0.4486
   81SOPE  H14S 7397   1.420   1.332   5.007  0.1591  1.5923  0.3550
   81SOPE  C215 7398   1.218   1.336   4.925  0.1082  0.1432  0.5513
   81SOPE  H15R 7399   1.266   1.420   4.869  0.9736 -1.3918 -1.1272
   81SOPE  H15S 7400   1.122   1.379   4.961  0.5327  1.5976  0.0042
   81SOPE  C216 7401   1.187   1.218   4.830  0.1010  0.0452 -0.0096
   81SOPE  H16R 7402   1.283   1.183   4.786 -0.7073 -1.5553 -0.5669
   81SOPE  H16S 7403   1.123   1.264   4.752  1.5976  0.4177 -1.0629
   81SOPE  C217 7404   1.120   1.110   4.903  0.1380  0.2944  0.2339
   81SOPE  H17R 7405   1.036   1.144   4.967 -1.0244  0.1874 -1.1885
   81SOPE  H17S 7406   1.194   1.066   4.973 -1.3579 -0.5673  1.3279
   81SOPE  C218 7407   1.076   0.995   4.815  0.5634 -0.0623 -0.1259
   81SOPE  H18R 7408   1.002   1.019   4.735 -0.8411  1.6850  1.5718
   81SOPE  H18S 7409   1.041   0.910   4.877  0.1741  1.7018  2.2522
   81SOPE  H18T 7410   1.166   0.966   4.757  1.5657 -2.0703  2.2796
   81SOPE   C33 7411   1.463   2.078   6.148  0.0221  0.8493  0.8014
   81SOPE   H3X 7412   1.432   2.184   6.156  0.9794  1.1452  0.7075
   81SOPE   H3Y 7413   1.381   2.007   6.126 -0.5232  1.1920  1.6791
   81SOPE   C34 7414   1.554   2.073   6.023 -0.6288  0.0874 -0.2713
   81SOPE   H4X 7415   1.588   1.968   6.013 -0.9462  0.0082 -0.5474
   81SOPE   H4Y 7416   1.650   2.128   6.032 -2.6471  4.1695 -1.2464
   81SOPE   C35 7417   1.482   2.086   5.890 -0.1136  0.0915 -0.5936
   81SOPE   H5X 7418   1.459   2.192   5.867  2.0932  1.1008  1.5263
   81SOPE   H5Y 7419   1.386   2.030   5.894 -0.1029  0.1373  0.5177
   81SOPE   C36 7420   1.568   2.021   5.781 -0.0730  0.2462 -0.4131
   81SOPE   H6X 7421   1.570   1.911   5.794 -1.7263  0.5620  4.2562
   81SOPE   H6Y 7422   1.671   2.059   5.800 -0.4131  1.0114 -0.0638
   81SOPE   C37 7423   1.521   2.045   5.638 -0.0569  0.4372  0.1743
   81SOPE   H7X 7424   1.502   2.151   5.613 -2.2810  0.4930  1.8255
   81SOPE   H7Y 7425   1.422   1.995   5.632  0.3719 -0.4207  0.0070
   81SOPE   C38 7426   1.611   1.979   5.526 -0.4171  0.0909 -0.2288
   81SOPE   H8X 7427   1.641   1.877   5.559  0.7753  0.5259  0.1030
   81SOPE   H8Y 7428   1.706   2.034   5.508 -0.9316  0.8614 -0.6583
   81SOPE   C39 7429   1.551   1.955   5.390  1.1624 -0.1362 -0.1954
   81SOPE   H9X 7430   1.634   1.940   5.319  1.7595  1.2225  0.1900
   81SOPE   H9Y 7431   1.498   2.047   5.358 -0.0091 -1.3493 -1.9549
   81SOPE  C310 7432   1.444   1.840   5.389 -0.1426  0.1002  0.4390
   81SOPE  H10X 7433   1.415   1.810   5.492 -2.4269  0.7157  0.0226
   81SOPE  H10Y 7434   1.503   1.765   5.333 -0.5685  0.6774 -0.8058
   81SOPE  C311 7435   1.317   1.880   5.310  0.6213  0.0895  0.1917
   81SOPE  H11X 7436   1.261   1.784   5.301  0.9436 -0.0837  0.0206
   81SOPE  H11Y 7437   1.340   1.915   5.207  1.9429  0.2027  0.5151
   81SOPE  C312 7438   1.228   1.973   5.389 -0.6555  0.3009 -0.5351
   81SOPE  H12X 7439   1.282   2.064   5.423  2.1224 -1.5810  0.4053
   81SOPE  H12Y 7440   1.210   1.924   5.487  0.4133  0.6821 -0.1390
   81SOPE  C313 7441   1.093   1.996   5.328 -0.5865  0.3690 -0.4608
   81SOPE  H13X 7442   1.014   2.018   5.402  0.4943 -0.5085  1.0085
   81SOPE  H13Y 7443   1.068   1.905   5.270  1.4979  0.4077 -1.5327
   81SOPE  C314 7444   1.096   2.105   5.218 -0.1263 -0.4362 -0.0663
   81SOPE  H14X 7445   1.180   2.101   5.145  0.2098  0.6373  0.2518
   81SOPE  H14Y 7446   1.121   2.192   5.282  0.5021  0.7805 -1.8753
   81SOPE  C315 7447   0.975   2.119   5.127 -0.3997 -0.4058 -0.2021
   81SOPE  H15X 7448   0.949   2.224   5.101  2.4038  0.3186 -0.4494
   81SOPE  H15Y 7449   0.891   2.086   5.192  0.8484 -0.5542  1.3917
   81SOPE  C316 7450   0.972   2.026   4.999 -0.0175 -0.0012 -0.0010
   81SOPE  H16X 7451   1.005   1.922   5.019  0.6434 -0.1017 -1.4419
   81SOPE  H16Y 7452   1.046   2.062   4.924  0.4906  0.0248  0.5129
   81SOPE  C317 7453   0.831   2.031   4.939  0.7330  0.0928  0.4479
   81SOPE  H17X 7454   0.808   2.119   4.876 -2.0635 -1.6852 -1.2258
   81SOPE  H17Y 7455   0.758   2.034   5.022 -2.4093  2.2952 -2.1459
   81SOPE  C318 7456   0.797   1.898   4.869 -0.4584 -0.1437  0.5269
   81SOPE  H18X 7457   0.820   1.806   4.928  0.1413 -1.2868 -1.4022
   81SOPE  H18Y 7458   0.846   1.890   4.770 -1.8912 -1.3047 -0.1153
   81SOPE  H18Z 7459   0.687   1.889   4.861 -0.6998  1.8041  1.2255
   82SOPE     N 7460   4.102   0.182   6.862  0.1599  0.0352  0.6982
   82SOPE   HN1 7461   4.040   0.261   6.888 -0.7196 -0.5045  0.3001
   82SOPE   HN2 7462   4.050   0.092   6.861 -1.0438  0.6652 -2.1598
   82SOPE   HN3 7463   4.175   0.178   6.936 -0.6223  1.9536  1.6468
   82SOPE   C12 7464   4.167   0.209   6.733  0.0645  0.0057 -0.1553
   82SOPE  H12A 7465   4.225   0.116   6.712  0.6145 -0.2580  2.2810
   82SOPE  H12B 7466   4.242   0.291   6.736  1.3636 -1.1553  1.8705
   82SOPE   C11 7467   4.056   0.230   6.620 -0.5693  0.1214 -0.2839
   82SOPE  H11A 7468   4.110   0.269   6.531 -1.8891  1.1405 -0.6774
   82SOPE  H11B 7469   3.988   0.312   6.650  0.5986  1.1869 -0.4482
   82SOPE     P 7470   3.841   0.084   6.629 -0.0457 -0.1164 -0.0961
   82SOPE   O13 7471   3.826   0.097   6.779 -0.2614  0.4638 -0.0020
   82SOPE   O14 7472   3.793  -0.037   6.559 -0.4464  0.0339 -0.4613
   82SOPE   O12 7473   3.988   0.107   6.582 -0.3461 -0.3698  0.4620
   82SOPE   O11 7474   3.764   0.213   6.570 -0.4173 -0.1660 -0.2308
   82SOPE    C1 7475   3.673   0.291   6.649 -0.5387  0.1881  0.0254
   82SOPE    HA 7476   3.672   0.397   6.615  1.9464  1.8286  4.2368
   82SOPE    HB 7477   3.699   0.302   6.756 -1.0038 -0.1804  0.1822
   82SOPE    C2 7478   3.531   0.234   6.649  0.3017  0.2787 -0.1873
   82SOPE    HS 7479   3.517   0.130   6.686  0.9098  0.0700 -0.5398
   82SOPE   O21 7480   3.484   0.245   6.513 -0.1681 -0.3174 -0.6541
   82SOPE   C21 7481   3.385   0.157   6.477 -0.3126 -0.0744  0.4434
   82SOPE   O22 7482   3.319   0.091   6.557  0.0759  0.1166  0.0017
   82SOPE   C22 7483   3.355   0.168   6.329  0.0391 -0.0815  0.0914
   82SOPE   H2R 7484   3.256   0.127   6.299 -1.0520  1.0099  2.0176
   82SOPE   H2S 7485   3.420   0.091   6.282 -1.2423 -1.6984  0.8631
   82SOPE    C3 7486   3.440   0.324   6.741 -0.6334 -0.7095  0.0670
   82SOPE    HX 7487   3.472   0.302   6.845  0.7734  2.0926  0.3023
   82SOPE    HY 7488   3.338   0.279   6.739 -1.0985  0.0501  2.7518
   82SOPE   O31 7489   3.454   0.465   6.716  0.2686 -0.2522  0.2201
   82SOPE   C31 7490   3.377   0.509   6.627 -0.6252 -0.1332 -0.2463
   82SOPE   O32 7491   3.278   0.455   6.574 -0.3484 -0.4827 -0.5511
   82SOPE   C32 7492   3.439   0.649   6.605 -0.0254  0.0594 -0.1968
   82SOPE   H2X 7493   3.548   0.653   6.586 -0.4628  0.3256 -2.9686
   82SOPE   H2Y 7494   3.426   0.705   6.701 -2.5024  1.3109 -1.1780
   82SOPE   C23 7495   3.386   0.297   6.257  0.9019  0.3246  0.5432
   82SOPE   H3R 7496   3.493   0.328   6.256  1.2157 -0.6423 -1.1761
   82SOPE   H3S 7497   3.324   0.373   6.307 -1.1116 -1.2298  0.5417
   82SOPE   C24 7498   3.357   0.303   6.106  0.2450 -0.2369  0.4869
   82SOPE   H4R 7499   3.275   0.234   6.076 -1.1880  2.1426 -1.4603
   82SOPE   H4S 7500   3.313   0.403   6.085  3.5881  1.2454 -0.0176
   82SOPE   C25 7501   3.478   0.277   6.014  0.1084 -0.3418  0.7383
   82SOPE   H5R 7502   3.550   0.361   6.004 -1.6052  0.9123 -4.8831
   82SOPE   H5S 7503   3.525   0.187   6.058 -0.4042 -1.5390 -1.0329
   82SOPE   C26 7504   3.437   0.254   5.872 -0.3895 -0.3492 -0.0587
   82SOPE   H6R 7505   3.374   0.162   5.877  1.9077 -2.0159 -0.2965
   82SOPE   H6S 7506   3.366   0.334   5.841  0.4137  0.6976  0.7174
   82SOPE   C27 7507   3.564   0.234   5.786 -0.4097 -0.5097  0.1656
   82SOPE   H7R 7508   3.644   0.306   5.812  1.2851 -1.9542 -0.8410
   82SOPE   H7S 7509   3.613   0.137   5.807 -2.3070 -1.3946  0.7603
   82SOPE   C28 7510   3.531   0.247   5.631 -0.0446 -0.1643  1.2469
   82SOPE   H8R 7511   3.461   0.162   5.616 -3.4177  2.9565 -3.2569
   82SOPE   H8S 7512   3.473   0.340   5.616 -1.1876 -0.7396  1.9450
   82SOPE   C29 7513   3.659   0.237   5.558 -0.1433 -0.0480  0.0195
   82SOPE   H91 7514   3.740   0.287   5.614 -0.4643  1.6392 -0.9790
   82SOPE  C210 7515   3.690   0.184   5.441 -0.1516  0.7026 -0.5095
   82SOPE  H101 7516   3.796   0.190   5.412  0.9287 -1.5939  2.4673
   82SOPE  C211 7517   3.601   0.097   5.351  0.2871  0.4878 -1.0590
   82SOPE  H11R 7518   3.496   0.130   5.367  0.4029  0.1089  0.6744
   82SOPE  H11S 7519   3.608  -0.010   5.380 -1.2002  0.8404  0.8082
   82SOPE  C212 7520   3.634   0.118   5.197  0.5514  0.6679 -0.2443
   82SOPE  H12R 7521   3.743   0.096   5.187  0.4085 -1.8036  2.3083
   82SOPE  H12S 7522   3.616   0.226   5.178 -0.7295  0.3155 -1.1077
   82SOPE  C213 7523   3.541   0.033   5.107  0.3520  0.1778  0.9387
   82SOPE  H13R 7524   3.440   0.064   5.141 -0.1982  0.7997 -1.1458
   82SOPE  H13S 7525   3.559  -0.075   5.125  0.5335 -0.0866 -0.6778
   82SOPE  C214 7526   3.567   0.053   4.959 -0.0229 -0.5431  0.4043
   82SOPE  H14R 7527   3.543   0.157   4.929  0.2971 -0.2368  1.1660
   82SOPE  H14S 7528   3.501  -0.018   4.905  0.6855 -0.5663 -0.4552
   82SOPE  C215 7529   3.704  -0.002   4.917  0.1128 -0.4920 -0.0798
   82SOPE  H15R 7530   3.710  -0.101   4.966  0.1356  0.0302  1.0170
   82SOPE  H15S 7531   3.782   0.065   4.960 -0.4384  0.5160 -0.6205
   82SOPE  C216 7532   3.725  -0.033   4.770  0.3777  0.5143  0.2897
   82SOPE  H16R 7533   3.747   0.067   4.725  0.1965  0.0619 -0.8420
   82SOPE  H16S 7534   3.639  -0.082   4.719  2.3202 -3.0669  0.1516
   82SOPE  C217 7535   3.845  -0.121   4.746  0.2666  0.9287  0.3680
   82SOPE  H17R 7536   3.943  -0.087   4.786 -0.7846  3.3816  1.0581
   82SOPE  H17S 7537   3.864  -0.121   4.636  0.2343 -1.6054  0.2945
   82SOPE  C218 7538   3.816  -0.270   4.785  0.0164  0.6280 -0.3506
   82SOPE  H18R 7539   3.861  -0.297   4.883  1.6411 -3.1772 -1.9781
   82SOPE  H18S 7540   3.850  -0.351   4.717 -0.2532 -1.6528  2.0677
   82SOPE  H18T 7541   3.706  -0.284   4.792  0.3191 -1.3709  0.9527
   82SOPE   C33 7542   3.371   0.728   6.498 -0.0326  0.4242  0.1692
   82SOPE   H3X 7543   3.389   0.837   6.512  0.7212  0.4319 -0.8031
   82SOPE   H3Y 7544   3.261   0.721   6.509  0.1600 -1.1043  1.5844
   82SOPE   C34 7545   3.400   0.695   6.350  0.1123  0.1341  0.2251
   82SOPE   H4X 7546   3.379   0.587   6.333 -1.5651  0.4825 -0.0470
   82SOPE   H4Y 7547   3.509   0.713   6.342 -0.0130  0.3407 -1.1695
   82SOPE   C35 7548   3.331   0.779   6.249  0.7773  0.8934  0.7525
   82SOPE   H5X 7549   3.359   0.887   6.243 -2.1098  1.7602  1.4244
   82SOPE   H5Y 7550   3.220   0.786   6.249  0.5760 -1.2548 -0.9870
   82SOPE   C36 7551   3.374   0.730   6.108 -0.3236  0.4241 -0.3120
   82SOPE   H6X 7552   3.355   0.626   6.077 -0.9223  0.6368 -0.6735
   82SOPE   H6Y 7553   3.484   0.743   6.099 -0.6075  2.0936 -2.1559
   82SOPE   C37 7554   3.316   0.821   5.993 -0.1272  0.7653 -0.1022
   82SOPE   H7X 7555   3.338   0.925   6.025  0.4920  0.6434 -0.1167
   82SOPE   H7Y 7556   3.207   0.807   5.980  0.1501 -2.0683 -0.0338
   82SOPE   C38 7557   3.382   0.805   5.859  1.2076  0.3896 -0.2288
   82SOPE   H8X 7558   3.393   0.701   5.822 -1.4011 -0.3453  0.8574
   82SOPE   H8Y 7559   3.486   0.844   5.862  1.7654 -1.0412 -0.1696
   82SOPE   C39 7560   3.314   0.900   5.755 -0.8125  0.0025  0.9683
   82SOPE   H9X 7561   3.331   1.001   5.798 -1.3913  0.4530  0.1724
   82SOPE   H9Y 7562   3.209   0.865   5.761 -0.6030 -0.6823  0.6528
   82SOPE  C310 7563   3.369   0.896   5.609  0.1744  0.6319  0.1577
   82SOPE  H10X 7564   3.471   0.938   5.619 -0.0097  1.3966 -0.9696
   82SOPE  H10Y 7565   3.307   0.959   5.541 -1.1337 -0.3449  0.4181
   82SOPE  C311 7566   3.376   0.757   5.545  0.1013 -0.4613  0.6098
   82SOPE  H11X 7567   3.274   0.715   5.538 -0.2072  0.1835  1.1805
   82SOPE  H11Y 7568   3.439   0.693   5.610  0.2601  1.6303  2.6334
   82SOPE  C312 7569   3.448   0.773   5.409 -0.1938  0.2571 -0.2160
   82SOPE  H12X 7570   3.545   0.822   5.432 -0.1138 -0.1078  0.2518
   82SOPE  H12Y 7571   3.390   0.842   5.346 -0.0020 -0.8533 -1.6634
   82SOPE  C313 7572   3.476   0.644   5.332  0.2346  1.2601 -0.0315
   82SOPE  H13X 7573   3.377   0.601   5.302  0.2836  1.3603 -0.3441
   82SOPE  H13Y 7574   3.536   0.569   5.388  0.4116  1.1189 -0.4035
   82SOPE  C314 7575   3.554   0.672   5.207  0.2592  0.4187  0.1466
   82SOPE  H14X 7576   3.644   0.728   5.241 -0.0302  1.4117 -0.6401
   82SOPE  H14Y 7577   3.502   0.730   5.127 -0.4565 -0.9234 -0.3950
   82SOPE  C315 7578   3.600   0.535   5.141  0.8276 -0.1291 -0.2080
   82SOPE  H15X 7579   3.513   0.481   5.099  0.3995 -0.5578  1.1553
   82SOPE  H15Y 7580   3.650   0.484   5.226  0.7720  2.2065  1.3170
   82SOPE  C316 7581   3.720   0.548   5.044 -0.4101 -0.1269  0.0672
   82SOPE  H16X 7582   3.798   0.608   5.095 -1.4061  2.3042 -1.1453
   82SOPE  H16Y 7583   3.686   0.612   4.961 -2.2226 -0.6254  0.3676
   82SOPE  C317 7584   3.768   0.408   4.985  0.8953  0.1694 -0.4908
   82SOPE  H17X 7585   3.676   0.380   4.930 -0.5011  1.7702  0.9328
   82SOPE  H17Y 7586   3.772   0.330   5.063 -1.9350 -1.2468 -1.6189
   82SOPE  C318 7587   3.883   0.410   4.892 -0.4187  0.4856  0.3491
   82SOPE  H18X 7588   3.966   0.360   4.947  0.1831  1.1000 -0.0036
   82SOPE  H18Y 7589   3.913   0.512   4.863 -1.8527  0.8872  0.1693
   82SOPE  H18Z 7590   3.875   0.354   4.796  0.9686 -0.5426  0.7969
   83SOPE     N 7591   4.985   4.995   2.351 -0.6334 -0.1856 -0.5102
   83SOPE   HN1 7592   4.945   4.900   2.368 -0.6996 -0.1231 -0.3047
   83SOPE   HN2 7593   4.899   5.052   2.342 -1.2589 -1.0070  0.0205
   83SOPE   HN3 7594   5.049   5.001   2.270  0.9144  2.3787  0.7856
   83SOPE   C12 7595   5.073   5.059   2.458  0.4690 -0.2733 -0.2311
   83SOPE  H12A 7596   5.164   5.001   2.481 -0.2004 -1.2004  0.1345
   83SOPE  H12B 7597   5.010   5.058   2.549  1.5574 -2.5499  0.5447
   83SOPE   C11 7598   5.113   5.203   2.416 -0.3703  0.5992  0.0386
   83SOPE  H11A 7599   5.027   5.266   2.386 -0.3627  1.4927  1.7895
   83SOPE  H11B 7600   5.177   5.188   2.327 -3.3313  1.3128 -2.3764
   83SOPE     P 7601   5.309   5.363   2.486  0.4522  0.0997  0.3806
   83SOPE   O13 7602   5.241   5.490   2.442  0.3454 -0.7948  0.6382
   83SOPE   O14 7603   5.409   5.306   2.391 -0.3500 -0.7934  1.1982
   83SOPE   O12 7604   5.195   5.259   2.520  0.2136 -0.2264  0.1456
   83SOPE   O11 7605   5.363   5.374   2.639  0.0151 -0.0921  0.2618
   83SOPE    C1 7606   5.387   5.258   2.722  0.6957  0.5032  0.2251
   83SOPE    HA 7607   5.490   5.265   2.762  0.3268 -0.0414  1.3034
   83SOPE    HB 7608   5.394   5.164   2.664 -2.2422  0.6743 -0.6079
   83SOPE    C2 7609   5.299   5.241   2.847 -0.9448  0.2540  0.8220
   83SOPE    HS 7610   5.197   5.219   2.811  0.2373 -0.8373 -2.1277
   83SOPE   O21 7611   5.313   5.360   2.923  0.7597 -0.4314  0.3108
   83SOPE   C21 7612   5.214   5.446   2.921  0.4138  0.7136 -0.4800
   83SOPE   O22 7613   5.108   5.424   2.867  0.4397 -0.1965  0.5246
   83SOPE   C22 7614   5.248   5.571   3.001 -0.3097  0.5339  0.1179
   83SOPE   H2R 7615   5.313   5.637   2.940  1.0110  0.7371  1.6665
   83SOPE   H2S 7616   5.313   5.556   3.091 -1.3802  0.8684  0.9670
   83SOPE    C3 7617   5.352   5.110   2.914  0.4840 -0.5460  0.7221
   83SOPE    HX 7618   5.463   5.114   2.918  0.5271 -0.4179 -0.2929
   83SOPE    HY 7619   5.333   5.022   2.850  1.5793  0.2315 -0.7265
   83SOPE   O31 7620   5.298   5.092   3.044 -0.2266  0.2983 -0.0376
   83SOPE   C31 7621   5.173   5.054   3.053 -0.4510 -0.0976 -0.1968
   83SOPE   O32 7622   5.094   5.033   2.961 -0.1216  0.3989  0.3725
   83SOPE   C32 7623   5.154   5.027   3.203 -0.1359  0.3193 -0.3374
   83SOPE   H2X 7624   5.216   5.100   3.260  0.9298  0.4312 -1.5783
   83SOPE   H2Y 7625   5.195   4.925   3.223  0.9067  0.6442 -0.7374
   83SOPE   C23 7626   5.119   5.634   3.032 -0.4079  0.1590  0.0265
   83SOPE   H3R 7627   5.042   5.562   3.065 -0.6625  0.3330 -0.1829
   83SOPE   H3S 7628   5.085   5.689   2.941  1.1046  1.1052 -0.0181
   83SOPE   C24 7629   5.126   5.733   3.153 -0.5757  0.4392 -0.5003
   83SOPE   H4R 7630   5.212   5.799   3.128 -1.1350  1.6035  0.5572
   83SOPE   H4S 7631   5.034   5.796   3.152 -0.9268 -0.0106  0.9797
   83SOPE   C25 7632   5.139   5.663   3.292 -0.1187  0.0598  0.1570
   83SOPE   H5R 7633   5.047   5.603   3.285 -0.8123  1.1258 -0.1322
   83SOPE   H5S 7634   5.223   5.590   3.298 -3.3335 -4.1325 -1.3451
   83SOPE   C26 7635   5.140   5.753   3.417  0.0305 -0.7178 -0.2519
   83SOPE   H6R 7636   5.194   5.847   3.394 -1.9808  0.9146  1.3262
   83SOPE   H6S 7637   5.039   5.796   3.437  0.6972  0.0850  1.6130
   83SOPE   C27 7638   5.189   5.683   3.544  0.2889 -0.0454  0.4109
   83SOPE   H7R 7639   5.135   5.586   3.542  1.0443 -0.4648 -0.2461
   83SOPE   H7S 7640   5.297   5.657   3.544  0.3025 -0.0062 -0.7821
   83SOPE   C28 7641   5.157   5.754   3.676 -0.0845  0.2263  0.1017
   83SOPE   H8R 7642   5.046   5.750   3.687  0.1931 -1.6166  4.8868
   83SOPE   H8S 7643   5.207   5.700   3.760 -0.5297  0.0900  0.2819
   83SOPE   C29 7644   5.204   5.897   3.676 -0.4962 -0.3462  0.2653
   83SOPE   H91 7645   5.219   5.939   3.576 -0.2425 -3.1078 -0.9485
   83SOPE  C210 7646   5.249   5.959   3.787  0.0404 -0.7606 -0.3889
   83SOPE  H101 7647   5.274   6.067   3.783  2.9569 -1.3229 -0.0874
   83SOPE  C211 7648   5.220   5.907   3.926 -0.6219 -0.3763 -0.2353
   83SOPE  H11R 7649   5.279   5.813   3.921 -0.1198 -0.0181 -2.6264
   83SOPE  H11S 7650   5.112   5.886   3.939 -1.1628  1.2227 -1.7339
   83SOPE  C212 7651   5.278   5.994   4.041 -0.7596 -0.0274  0.3367
   83SOPE  H12R 7652   5.375   6.045   4.026 -0.3956 -0.5637  0.8178
   83SOPE  H12S 7653   5.306   5.925   4.123 -0.9789 -1.1824 -0.5380
   83SOPE  C213 7654   5.177   6.111   4.080 -0.0820 -0.0691 -0.0641
   83SOPE  H13R 7655   5.080   6.076   4.123  0.4006 -0.7114  0.5228
   83SOPE  H13S 7656   5.144   6.165   3.989 -1.1525  1.4857  1.1831
   83SOPE  C214 7657   5.242   6.213   4.173  0.7110 -0.1749 -0.3337
   83SOPE  H14R 7658   5.194   6.313   4.168  1.5783  0.3375  0.9337
   83SOPE  H14S 7659   5.345   6.237   4.138 -1.0040  1.5674 -5.0014
   83SOPE  C215 7660   5.254   6.165   4.326  0.3061  0.6651 -0.0341
   83SOPE  H15R 7661   5.321   6.076   4.325 -0.9752 -0.3439 -1.9502
   83SOPE  H15S 7662   5.162   6.129   4.379 -0.5231  2.1393 -0.4366
   83SOPE  C216 7663   5.321   6.279   4.409 -0.1316 -0.0732  0.3467
   83SOPE  H16R 7664   5.248   6.362   4.411 -2.0445 -1.6515 -0.5720
   83SOPE  H16S 7665   5.411   6.306   4.351 -1.6485 -1.7116 -3.0274
   83SOPE  C217 7666   5.342   6.249   4.562  0.3238  0.0671 -0.2649
   83SOPE  H17R 7667   5.399   6.154   4.574  2.1701  1.0559 -0.7035
   83SOPE  H17S 7668   5.250   6.238   4.622 -0.8130  0.4226 -1.8636
   83SOPE  C218 7669   5.429   6.361   4.629  0.0524 -0.0778 -0.1424
   83SOPE  H18R 7670   5.364   6.447   4.653  0.0092 -0.3038  0.5824
   83SOPE  H18S 7671   5.512   6.385   4.560 -0.0592  0.8193  0.0271
   83SOPE  H18T 7672   5.480   6.329   4.723  0.0443 -0.2321 -0.1894
   83SOPE   C33 7673   5.004   5.033   3.257  0.3546 -0.1788 -0.2379
   83SOPE   H3X 7674   5.000   5.001   3.363 -2.1422  0.4632 -0.0685
   83SOPE   H3Y 7675   4.946   4.952   3.207  1.9723 -0.3522 -1.9545
   83SOPE   C34 7676   4.933   5.169   3.237  0.5035  0.6993 -0.1363
   83SOPE   H4X 7677   4.827   5.157   3.269  0.3592  0.8558 -0.5413
   83SOPE   H4Y 7678   4.939   5.198   3.130 -1.2543 -0.1936 -0.5078
   83SOPE   C35 7679   4.994   5.282   3.321 -0.0274 -0.0978  0.0218
   83SOPE   H5X 7680   4.934   5.375   3.307 -0.0947 -0.0325  0.7073
   83SOPE   H5Y 7681   5.092   5.299   3.273  0.3335 -1.1382  0.3623
   83SOPE   C36 7682   4.992   5.269   3.473  0.1837  0.2833  0.7797
   83SOPE   H6X 7683   5.050   5.348   3.525 -1.5334  1.6474  0.7105
   83SOPE   H6Y 7684   5.038   5.172   3.503  0.2138  0.1764  0.3972
   83SOPE   C37 7685   4.848   5.268   3.530  0.3865 -0.1232  0.4431
   83SOPE   H7X 7686   4.787   5.186   3.487  0.1889  1.5371 -2.7443
   83SOPE   H7Y 7687   4.810   5.367   3.497  0.6903 -0.6021 -1.4229
   83SOPE   C38 7688   4.853   5.251   3.681 -0.3939 -0.4439 -0.0018
   83SOPE   H8X 7689   4.900   5.151   3.689 -1.3487 -0.7554  2.7173
   83SOPE   H8Y 7690   4.751   5.248   3.725  0.6957  0.3322  2.8519
   83SOPE   C39 7691   4.935   5.350   3.769  0.0308  0.3232 -0.5296
   83SOPE   H9X 7692   5.042   5.344   3.740  0.4494 -2.9510  1.2014
   83SOPE   H9Y 7693   4.944   5.315   3.874 -1.2026  0.5008 -0.3505
   83SOPE  C310 7694   4.900   5.500   3.751 -0.7374  1.0111  0.1898
   83SOPE  H10X 7695   4.904   5.527   3.644  1.8427 -0.4221 -0.1687
   83SOPE  H10Y 7696   4.982   5.554   3.804  0.0831 -0.8981  0.9672
   83SOPE  C311 7697   4.771   5.533   3.824 -0.7708  0.1310  0.3546
   83SOPE  H11X 7698   4.750   5.484   3.921  1.4928 -1.1529  0.2822
   83SOPE  H11Y 7699   4.694   5.502   3.750 -1.2518 -0.8547  1.2492
   83SOPE  C312 7700   4.765   5.681   3.841 -0.1260  0.6041  0.0605
   83SOPE  H12X 7701   4.687   5.719   3.771 -0.3114  1.8344  0.9017
   83SOPE  H12Y 7702   4.861   5.731   3.816  0.2565 -0.9573 -1.7804
   83SOPE  C313 7703   4.742   5.729   3.983  0.4427  0.4734 -0.2039
   83SOPE  H13X 7704   4.647   5.681   4.014 -0.3285  1.1236 -1.4787
   83SOPE  H13Y 7705   4.721   5.838   3.978  0.3431  0.4489 -0.3325
   83SOPE  C314 7706   4.866   5.705   4.077 -0.4035 -0.1965 -0.3708
   83SOPE  H14X 7707   4.949   5.777   4.058  1.2272 -1.7479  0.5307
   83SOPE  H14Y 7708   4.887   5.598   4.058 -2.8816 -0.9468  0.8124
   83SOPE  C315 7709   4.823   5.712   4.220 -0.0207  0.4318 -0.3181
   83SOPE  H15X 7710   4.742   5.644   4.252  0.5351 -0.1157 -0.0637
   83SOPE  H15Y 7711   4.787   5.815   4.242 -1.9101 -0.3639  0.5864
   83SOPE  C316 7712   4.938   5.686   4.326  0.3456  0.5111  0.4601
   83SOPE  H16X 7713   4.972   5.581   4.317  0.0064  0.5107 -1.1321
   83SOPE  H16Y 7714   4.889   5.699   4.425  0.3950 -0.0003  0.5527
   83SOPE  C317 7715   5.051   5.786   4.318 -0.6783 -0.2689  1.1853
   83SOPE  H17X 7716   5.014   5.887   4.348  2.0313  0.9473  0.7372
   83SOPE  H17Y 7717   5.093   5.793   4.216  0.1043 -0.2468  1.4988
   83SOPE  C318 7718   5.177   5.765   4.407 -0.6551  0.1998 -0.4445
   83SOPE  H18X 7719   5.264   5.812   4.356 -0.7420  0.0476 -0.7319
   83SOPE  H18Y 7720   5.194   5.657   4.421  1.7348  0.6582  0.6541
   83SOPE  H18Z 7721   5.149   5.811   4.504 -1.0133  2.7226 -1.6591
   84SOPE     N 7722   4.558   3.905   2.352  0.1008 -0.5659 -0.3317
   84SOPE   HN1 7723   4.503   3.967   2.414 -0.4435 -2.5454  1.2861
   84SOPE   HN2 7724   4.497   3.884   2.270 -1.7392 -0.8132  1.0443
   84SOPE   HN3 7725   4.564   3.820   2.412  2.3524  0.3465  0.8604
   84SOPE   C12 7726   4.690   3.978   2.326  0.4401 -0.6219  0.1739
   84SOPE  H12A 7727   4.677   4.049   2.241  1.6495 -0.0625  0.4204
   84SOPE  H12B 7728   4.774   3.907   2.308  0.1542 -1.0060  0.3523
   84SOPE   C11 7729   4.729   4.050   2.461 -0.2945 -0.7317  0.6004
   84SOPE  H11A 7730   4.814   4.115   2.432 -0.0222 -0.1359  2.5848
   84SOPE  H11B 7731   4.765   3.973   2.532  0.5344 -1.0119 -0.1104
   84SOPE     P 7732   4.611   4.286   2.549 -0.0262  0.0972  0.8270
   84SOPE   O13 7733   4.475   4.327   2.593 -0.6533 -0.0908  0.3540
   84SOPE   O14 7734   4.667   4.358   2.432  0.2957  0.4572  0.1824
   84SOPE   O12 7735   4.624   4.128   2.520 -0.4902 -0.4898  0.7464
   84SOPE   O11 7736   4.709   4.316   2.667 -0.1122 -0.1411  0.4126
   84SOPE    C1 7737   4.841   4.265   2.655  0.4981 -0.0505 -0.1452
   84SOPE    HA 7738   4.886   4.312   2.565 -0.6484  0.3767 -0.5167
   84SOPE    HB 7739   4.849   4.154   2.654 -0.9929 -0.2090  0.7944
   84SOPE    C2 7740   4.934   4.311   2.773 -0.2902 -0.2286  0.1596
   84SOPE    HS 7741   5.041   4.287   2.756  0.4629  1.3684  2.1899
   84SOPE   O21 7742   4.881   4.266   2.904  0.1241 -0.0027  0.8091
   84SOPE   C21 7743   4.920   4.151   2.935 -0.0864  0.2677 -0.0910
   84SOPE   O22 7744   4.996   4.080   2.873  0.1348 -0.6419 -0.6172
   84SOPE   C22 7745   4.863   4.115   3.075 -0.5055 -0.0730  0.4677
   84SOPE   H2R 7746   4.771   4.175   3.088 -0.0508  0.4837  1.1693
   84SOPE   H2S 7747   4.931   4.156   3.153 -0.3352 -1.7897  1.2765
   84SOPE    C3 7748   4.948   4.471   2.765 -0.6485 -0.1600  0.1879
   84SOPE    HX 7749   4.846   4.513   2.774 -0.3406  0.9430 -1.1386
   84SOPE    HY 7750   4.986   4.501   2.665 -3.7265  1.8419 -0.5292
   84SOPE   O31 7751   5.042   4.510   2.863 -0.0968  0.4833 -0.0360
   84SOPE   C31 7752   4.994   4.592   2.951  0.2283 -0.2356 -0.5587
   84SOPE   O32 7753   4.872   4.627   2.958  0.1529  0.6754 -0.3119
   84SOPE   C32 7754   5.099   4.658   3.043  0.1594  0.4951  0.1701
   84SOPE   H2X 7755   5.120   4.745   2.978  0.0040  0.6933  0.3844
   84SOPE   H2Y 7756   5.188   4.591   3.045 -0.4252 -0.2994  0.0076
   84SOPE   C23 7757   4.843   3.964   3.098 -0.3619  0.1240  0.4115
   84SOPE   H3R 7758   4.934   3.900   3.094 -0.9528 -0.7131  0.2977
   84SOPE   H3S 7759   4.779   3.918   3.020 -0.8580 -0.3061  1.0685
   84SOPE   C24 7760   4.777   3.923   3.232 -0.2153  0.2304  0.0698
   84SOPE   H4R 7761   4.685   3.983   3.248 -0.4366 -0.3605  1.1422
   84SOPE   H4S 7762   4.746   3.817   3.237  0.2667  0.0289 -1.0564
   84SOPE   C25 7763   4.865   3.977   3.343 -0.5128 -0.3184  0.0415
   84SOPE   H5R 7764   4.972   3.961   3.318 -0.4213 -2.0739  1.3136
   84SOPE   H5S 7765   4.836   4.084   3.352  1.4352  0.2984 -0.6332
   84SOPE   C26 7766   4.829   3.919   3.482  0.4238  0.6377 -0.5281
   84SOPE   H6R 7767   4.719   3.928   3.496  0.2055  1.4762 -2.3948
   84SOPE   H6S 7768   4.856   3.811   3.484 -1.0949  0.2368  2.0427
   84SOPE   C27 7769   4.890   3.991   3.605 -0.2236 -0.1677  0.0750
   84SOPE   H7R 7770   4.997   3.963   3.601  0.7874  3.2877 -0.9901
   84SOPE   H7S 7771   4.894   4.102   3.594 -0.2863 -0.1083  0.6362
   84SOPE   C28 7772   4.827   3.942   3.736  0.2385 -0.1216 -0.2538
   84SOPE   H8R 7773   4.812   3.832   3.744  1.0223 -0.1173  2.1209
   84SOPE   H8S 7774   4.902   3.977   3.811 -0.2291  0.2466  0.0473
   84SOPE   C29 7775   4.695   4.012   3.765 -0.2878  0.1635  0.4717
   84SOPE   H91 7776   4.629   4.032   3.680 -0.7381 -3.1730 -0.0674
   84SOPE  C210 7777   4.646   4.053   3.883 -0.4566  0.4609 -0.4900
   84SOPE  H101 7778   4.557   4.117   3.892  0.4077  1.4292  1.6362
   84SOPE  C211 7779   4.714   4.040   4.016  0.5035  0.1088 -0.0576
   84SOPE  H11R 7780   4.818   4.079   4.010  0.8346 -0.6805  0.3815
   84SOPE  H11S 7781   4.706   3.932   4.040  0.1996 -0.1963 -1.4381
   84SOPE  C212 7782   4.651   4.091   4.146 -0.1063  0.0775 -0.3458
   84SOPE  H12R 7783   4.549   4.048   4.155  0.0606 -0.0358  1.2284
   84SOPE  H12S 7784   4.644   4.202   4.152  1.2565  0.1299  0.7871
   84SOPE  C213 7785   4.734   4.035   4.266  0.0369 -0.5172  0.8117
   84SOPE  H13R 7786   4.832   4.086   4.270 -0.4346  1.1023 -3.4869
   84SOPE  H13S 7787   4.758   3.927   4.254  0.3407 -0.2400 -1.5738
   84SOPE  C214 7788   4.654   4.049   4.396 -0.3306  0.1710 -1.0948
   84SOPE  H14R 7789   4.574   3.972   4.388 -1.6745  1.6591 -2.9475
   84SOPE  H14S 7790   4.614   4.152   4.400 -1.6016 -0.3482  0.4492
   84SOPE  C215 7791   4.744   4.029   4.521 -0.3536  0.4232  0.0092
   84SOPE  H15R 7792   4.814   4.115   4.515 -1.1361  1.3587  2.7355
   84SOPE  H15S 7793   4.798   3.932   4.520 -0.3887  0.3403  1.6912
   84SOPE  C216 7794   4.670   4.052   4.662  0.5235 -0.5440 -0.0665
   84SOPE  H16R 7795   4.571   4.002   4.655  0.6242 -0.5212 -2.2203
   84SOPE  H16S 7796   4.652   4.162   4.662  2.0879 -0.2681 -0.2638
   84SOPE  C217 7797   4.742   4.010   4.791 -0.4974 -0.4908 -0.3319
   84SOPE  H17R 7798   4.845   4.044   4.767 -0.8881 -0.5983 -2.3141
   84SOPE  H17S 7799   4.743   3.900   4.807  2.5187 -0.6480 -0.8644
   84SOPE  C218 7800   4.685   4.064   4.925  0.1032  0.0567 -0.3974
   84SOPE  H18R 7801   4.589   4.008   4.934 -0.3289  0.8061 -0.2034
   84SOPE  H18S 7802   4.678   4.175   4.929  0.6689  0.0788  0.1307
   84SOPE  H18T 7803   4.752   4.028   5.006  2.1296 -0.6895 -2.2985
   84SOPE   C33 7804   5.048   4.690   3.177  0.4690  0.2425 -0.2555
   84SOPE   H3X 7805   4.959   4.754   3.157 -0.6934 -1.0558  0.5527
   84SOPE   H3Y 7806   5.127   4.747   3.230  0.4256 -0.2168  0.3114
   84SOPE   C34 7807   4.995   4.572   3.258  0.2391 -0.0428 -0.4661
   84SOPE   H4X 7808   5.077   4.509   3.297 -1.2875 -1.7208  0.1776
   84SOPE   H4Y 7809   4.933   4.504   3.196  0.2700  0.7345 -1.3823
   84SOPE   C35 7810   4.921   4.630   3.380 -0.0849  0.7794 -0.1370
   84SOPE   H5X 7811   4.834   4.568   3.408  1.2321 -0.7937  0.6464
   84SOPE   H5Y 7812   4.874   4.729   3.361 -0.0089  0.8481  0.0331
   84SOPE   C36 7813   5.024   4.650   3.501 -0.3778  0.7124  0.5886
   84SOPE   H6X 7814   5.093   4.733   3.476  0.5554 -0.7497 -2.0866
   84SOPE   H6Y 7815   5.089   4.560   3.507 -1.3504 -0.0109  0.6024
   84SOPE   C37 7816   4.957   4.678   3.639 -0.0139 -0.6793  1.2835
   84SOPE   H7X 7817   4.886   4.594   3.651  0.4476 -1.3559 -0.4402
   84SOPE   H7Y 7818   4.894   4.769   3.637 -0.4104 -0.9030  2.5019
   84SOPE   C38 7819   5.047   4.684   3.758  0.5097  0.2011 -0.5673
   84SOPE   H8X 7820   5.106   4.777   3.742 -0.0330  0.4286 -1.2565
   84SOPE   H8Y 7821   5.121   4.601   3.745  0.1878  0.1331 -2.2578
   84SOPE   C39 7822   4.973   4.693   3.891  0.2531 -0.1308  0.1057
   84SOPE   H9X 7823   4.905   4.606   3.906 -0.3350  0.5347  1.4835
   84SOPE   H9Y 7824   4.910   4.784   3.894 -1.3007 -1.1834  0.9627
   84SOPE  C310 7825   5.068   4.702   4.012  0.6713  0.4213 -0.0200
   84SOPE  H10X 7826   5.140   4.787   4.010  1.5931 -0.3335  0.3757
   84SOPE  H10Y 7827   5.132   4.611   4.014  0.8920  0.5762  0.4900
   84SOPE  C311 7828   4.996   4.715   4.146 -0.1936  0.2597 -0.3529
   84SOPE  H11X 7829   4.913   4.641   4.156 -0.9934  0.8413 -2.2314
   84SOPE  H11Y 7830   4.957   4.818   4.160  1.1400  0.6012  1.0577
   84SOPE  C312 7831   5.090   4.698   4.268  0.6050  0.1186  0.0831
   84SOPE  H12X 7832   5.155   4.787   4.287 -0.1847  1.3523 -2.5310
   84SOPE  H12Y 7833   5.159   4.620   4.230 -0.1346  1.0389 -3.4539
   84SOPE  C313 7834   5.021   4.667   4.407 -0.4950  0.5743 -0.1073
   84SOPE  H13X 7835   4.960   4.574   4.400 -0.8298  0.8092 -0.3488
   84SOPE  H13Y 7836   4.957   4.754   4.432 -0.0126  0.3052  2.3361
   84SOPE  C314 7837   5.107   4.625   4.529  0.3687  0.1819  0.1286
   84SOPE  H14X 7838   5.176   4.542   4.505  0.3496 -0.8016  3.0713
   84SOPE  H14Y 7839   5.038   4.576   4.600 -1.4655 -0.2809 -1.8871
   84SOPE  C315 7840   5.184   4.746   4.590  0.0198 -0.3300 -0.2326
   84SOPE  H15X 7841   5.222   4.789   4.495 -2.5418  1.6828 -0.4537
   84SOPE  H15Y 7842   5.270   4.709   4.650 -0.6194 -1.4537  0.0310
   84SOPE  C316 7843   5.099   4.855   4.668  0.5347  0.0395  0.5276
   84SOPE  H16X 7844   5.035   4.795   4.736  1.8434 -1.3469  0.5937
   84SOPE  H16Y 7845   5.026   4.905   4.601  1.3801  1.1106  0.3940
   84SOPE  C317 7846   5.179   4.964   4.745  0.2353 -0.3441 -0.5145
   84SOPE  H17X 7847   5.109   5.047   4.770  0.6230 -0.4504  1.0094
   84SOPE  H17Y 7848   5.259   4.991   4.672 -1.3633 -0.5049 -2.4385
   84SOPE  C318 7849   5.238   4.909   4.874 -0.1471 -0.5704  0.5885
   84SOPE  H18X 7850   5.169   4.834   4.917 -1.2232  1.2924  2.2810
   84SOPE  H18Y 7851   5.265   4.982   4.954 -0.8345  0.9809 -0.5442
   84SOPE  H18Z 7852   5.329   4.853   4.842 -1.1741 -1.1552 -1.5019
   85SOPE     N 7853   1.751   1.044   2.330 -0.5132 -0.4695  0.1374
   85SOPE   HN1 7854   1.677   1.010   2.265 -2.0954 -0.3983  1.8278
   85SOPE   HN2 7855   1.818   1.098   2.271 -2.2337  0.8267 -0.7453
   85SOPE   HN3 7856   1.808   0.961   2.357 -0.3949 -0.8034 -1.0627
   85SOPE   C12 7857   1.708   1.118   2.457  1.0879  0.5638  0.0880
   85SOPE  H12A 7858   1.656   1.212   2.428  1.5298  0.4246 -1.2149
   85SOPE  H12B 7859   1.800   1.153   2.508  0.9688  2.1130 -0.7109
   85SOPE   C11 7860   1.612   1.033   2.545 -0.1376 -0.5621 -0.6014
   85SOPE  H11A 7861   1.611   1.078   2.647  1.2437  0.0910 -0.8568
   85SOPE  H11B 7862   1.661   0.934   2.553  0.8105 -0.2036 -1.6920
   85SOPE     P 7863   1.432   0.900   2.418  0.4846  0.2972  0.0308
   85SOPE   O13 7864   1.540   0.860   2.324  0.0758  0.3645  0.0467
   85SOPE   O14 7865   1.297   0.941   2.365 -0.1217  0.1424  0.3603
   85SOPE   O12 7866   1.481   1.029   2.491  0.2879  0.4877  0.2454
   85SOPE   O11 7867   1.420   0.796   2.535 -0.2080 -0.1063 -0.3880
   85SOPE    C1 7868   1.393   0.824   2.676 -0.2674 -0.1460 -0.6708
   85SOPE    HA 7869   1.283   0.828   2.691 -0.1715 -1.5208  0.5910
   85SOPE    HB 7870   1.439   0.917   2.714  2.0021 -0.2861 -2.8273
   85SOPE    C2 7871   1.440   0.704   2.772 -0.0514 -0.2292 -0.5466
   85SOPE    HS 7872   1.385   0.612   2.743  1.0640 -0.8527 -0.7581
   85SOPE   O21 7873   1.411   0.734   2.913 -0.3306 -0.1590 -0.1024
   85SOPE   C21 7874   1.288   0.739   2.943  0.7640  0.0120  0.6179
   85SOPE   O22 7875   1.194   0.700   2.877  0.0997  0.2399 -0.0360
   85SOPE   C22 7876   1.273   0.786   3.089 -0.0850 -0.4336  0.1032
   85SOPE   H2R 7877   1.183   0.851   3.097  0.0307 -0.3701  1.0387
   85SOPE   H2S 7878   1.349   0.864   3.109 -0.6778  0.2714 -0.3617
   85SOPE    C3 7879   1.590   0.671   2.747 -0.8634  0.0862  0.2283
   85SOPE    HX 7880   1.660   0.756   2.764 -1.1918  0.0950  1.7700
   85SOPE    HY 7881   1.609   0.638   2.643  1.0907  1.8054 -0.0386
   85SOPE   O31 7882   1.644   0.579   2.852  0.1090 -0.4386  0.1817
   85SOPE   C31 7883   1.579   0.462   2.860  0.4703 -0.3917 -0.2475
   85SOPE   O32 7884   1.503   0.418   2.775 -0.5801  0.5939 -0.2366
   85SOPE   C32 7885   1.631   0.373   2.975 -0.1157 -0.8989  0.0696
   85SOPE   H2X 7886   1.705   0.427   3.038 -0.8529  1.2713 -0.8377
   85SOPE   H2Y 7887   1.682   0.289   2.924  1.0038  0.3460 -0.9490
   85SOPE   C23 7888   1.270   0.667   3.194 -0.5769  0.2920  0.3748
   85SOPE   H3R 7889   1.368   0.615   3.181 -0.9076 -0.1435 -0.4620
   85SOPE   H3S 7890   1.193   0.596   3.157 -1.1235  0.8897  0.3645
   85SOPE   C24 7891   1.246   0.707   3.342 -0.2617 -0.0833  0.6013
   85SOPE   H4R 7892   1.343   0.749   3.377 -0.2606 -1.4958  2.4698
   85SOPE   H4S 7893   1.176   0.794   3.347 -2.2131 -1.5622  0.0915
   85SOPE   C25 7894   1.211   0.584   3.422  0.1214 -0.1141 -0.1378
   85SOPE   H5R 7895   1.107   0.555   3.396 -0.4563 -0.3421  2.2255
   85SOPE   H5S 7896   1.281   0.499   3.405 -0.7698 -1.0420  0.6682
   85SOPE   C26 7897   1.209   0.619   3.577  0.2975 -0.1068  0.2826
   85SOPE   H6R 7898   1.304   0.663   3.615  1.2756 -1.5920 -0.3324
   85SOPE   H6S 7899   1.123   0.686   3.599 -0.5357 -0.9685 -0.2582
   85SOPE   C27 7900   1.194   0.497   3.658  0.4547 -0.0825 -0.1764
   85SOPE   H7R 7901   1.104   0.441   3.624  0.7253 -0.1481 -0.7990
   85SOPE   H7S 7902   1.284   0.434   3.645 -1.0175 -1.8389 -2.7156
   85SOPE   C28 7903   1.161   0.522   3.810 -0.8741  0.0517 -0.1279
   85SOPE   H8R 7904   1.152   0.418   3.848 -1.2989 -0.4841 -1.6065
   85SOPE   H8S 7905   1.245   0.576   3.858  0.4786 -1.4231 -0.7819
   85SOPE   C29 7906   1.036   0.595   3.823 -0.0167  0.0385  0.3785
   85SOPE   H91 7907   0.963   0.601   3.741  0.5641 -1.1271 -0.2375
   85SOPE  C210 7908   1.001   0.641   3.945  0.2642  0.8299  0.0906
   85SOPE  H101 7909   0.908   0.701   3.949  0.1391  0.6204  0.3751
   85SOPE  C211 7910   1.073   0.625   4.078  0.2709 -0.2652  0.5581
   85SOPE  H11R 7911   1.093   0.718   4.136  0.2341 -0.1073  0.3196
   85SOPE  H11S 7912   1.163   0.563   4.057 -0.3173 -0.7883 -0.4614
   85SOPE  C212 7913   0.988   0.532   4.169  0.4416 -0.0007  0.2887
   85SOPE  H12R 7914   0.937   0.455   4.108 -1.3844  1.4032 -0.0709
   85SOPE  H12S 7915   0.902   0.594   4.204  0.4870  0.8227 -1.0180
   85SOPE  C213 7916   1.062   0.471   4.289 -0.6236 -0.3330  0.7939
   85SOPE  H13R 7917   1.154   0.432   4.240 -1.4432 -1.2131 -0.0780
   85SOPE  H13S 7918   1.007   0.389   4.340 -1.1741 -0.6422 -0.2753
   85SOPE  C214 7919   1.104   0.575   4.395  0.1956  0.3313 -0.0249
   85SOPE  H14R 7920   1.018   0.646   4.394 -0.1490 -0.0556  0.6885
   85SOPE  H14S 7921   1.189   0.634   4.356 -0.3999  1.5875  0.5205
   85SOPE  C215 7922   1.146   0.522   4.532 -0.0729 -0.5652 -0.3047
   85SOPE  H15R 7923   1.189   0.420   4.529  1.3603 -0.0680  1.2526
   85SOPE  H15S 7924   1.057   0.510   4.598 -0.9917  2.3508 -0.8427
   85SOPE  C216 7925   1.263   0.612   4.588 -0.3738  0.4634 -0.8208
   85SOPE  H16R 7926   1.250   0.722   4.581 -1.9178  0.3909  0.3206
   85SOPE  H16S 7927   1.348   0.574   4.528 -0.4363 -0.1784 -0.5139
   85SOPE  C217 7928   1.302   0.579   4.741 -0.4480 -0.5834  0.4807
   85SOPE  H17R 7929   1.221   0.616   4.807 -1.1177  2.4260 -1.7685
   85SOPE  H17S 7930   1.377   0.658   4.763 -1.1798  0.0747  0.6649
   85SOPE  C218 7931   1.351   0.440   4.776  0.1927 -0.5050  0.2763
   85SOPE  H18R 7932   1.263   0.374   4.758 -0.2382  0.5524 -1.7473
   85SOPE  H18S 7933   1.387   0.444   4.881  2.0786  0.9383 -0.3908
   85SOPE  H18T 7934   1.433   0.406   4.710  2.5519 -0.0692  2.8221
   85SOPE   C33 7935   1.519   0.323   3.068  0.0833  0.5335 -0.3369
   85SOPE   H3X 7936   1.437   0.283   3.005  0.3591 -0.0589 -0.3298
   85SOPE   H3Y 7937   1.472   0.409   3.121  1.0944  0.4511  0.7470
   85SOPE   C34 7938   1.563   0.225   3.175  0.0923 -0.7323  0.1097
   85SOPE   H4X 7939   1.627   0.275   3.252 -1.2154  0.2726  0.5813
   85SOPE   H4Y 7940   1.621   0.156   3.110  2.0528  1.5738 -0.7919
   85SOPE   C35 7941   1.441   0.169   3.248 -0.2512  0.2447  0.9813
   85SOPE   H5X 7942   1.378   0.123   3.168 -0.4550 -2.5570  2.6213
   85SOPE   H5Y 7943   1.392   0.253   3.302  0.7730  0.9455  0.8313
   85SOPE   C36 7944   1.468   0.051   3.340 -1.1729 -0.2082 -0.2072
   85SOPE   H6X 7945   1.532  -0.027   3.294  0.6564 -0.4404  2.4819
   85SOPE   H6Y 7946   1.368   0.007   3.363 -0.4468 -2.0588 -0.4613
   85SOPE   C37 7947   1.520   0.098   3.482 -1.0940  0.5041  0.4261
   85SOPE   H7X 7948   1.444   0.153   3.540  0.9768  0.9127  2.9714
   85SOPE   H7Y 7949   1.604   0.166   3.456 -2.0648  0.9526 -1.7510
   85SOPE   C38 7950   1.569  -0.007   3.575 -0.5342 -0.7264 -0.9022
   85SOPE   H8X 7951   1.662  -0.050   3.532 -0.0479 -2.7179  1.8134
   85SOPE   H8Y 7952   1.488  -0.082   3.591 -1.3491  0.4195  0.6000
   85SOPE   C39 7953   1.606   0.052   3.714  0.0022 -0.6049 -0.1645
   85SOPE   H9X 7954   1.668   0.141   3.688  0.0712 -0.4178  0.6031
   85SOPE   H9Y 7955   1.670  -0.004   3.786 -0.5181  0.3563  1.0821
   85SOPE  C310 7956   1.489   0.119   3.783  0.2472 -0.1117 -0.1996
   85SOPE  H10X 7957   1.388   0.075   3.768 -0.5268  0.8514  1.7713
   85SOPE  H10Y 7958   1.483   0.223   3.744  0.7450 -0.7519 -2.0738
   85SOPE  C311 7959   1.513   0.133   3.934  0.2777  0.0161 -0.1097
   85SOPE  H11X 7960   1.453   0.218   3.971 -0.2880 -0.3541 -0.1624
   85SOPE  H11Y 7961   1.622   0.152   3.937  1.0946 -3.3253 -2.1330
   85SOPE  C312 7962   1.478   0.011   4.016  0.2492  0.2759 -0.7570
   85SOPE  H12X 7963   1.525  -0.080   3.973  0.5884  0.1102 -0.0520
   85SOPE  H12Y 7964   1.367  -0.001   4.008 -0.0794  0.8444  2.0382
   85SOPE  C313 7965   1.517   0.020   4.165  0.5633  0.3963 -0.3314
   85SOPE  H13X 7966   1.624  -0.002   4.184  0.7932  2.5145  1.1042
   85SOPE  H13Y 7967   1.463  -0.072   4.198  0.3153  0.6164 -0.1193
   85SOPE  C314 7968   1.473   0.144   4.243 -0.5161 -0.0490 -0.4202
   85SOPE  H14X 7969   1.362   0.137   4.238 -0.3898 -3.0591 -0.8861
   85SOPE  H14Y 7970   1.526   0.220   4.180 -1.9004  0.3540 -1.1508
   85SOPE  C315 7971   1.528   0.153   4.387 -0.8498  0.0625 -0.4038
   85SOPE  H15X 7972   1.501   0.245   4.443 -0.9610 -0.1217 -0.1508
   85SOPE  H15Y 7973   1.638   0.153   4.370 -0.6576  1.0498  0.7384
   85SOPE  C316 7974   1.492   0.029   4.470 -0.5571  0.4876 -0.0450
   85SOPE  H16X 7975   1.547  -0.065   4.448 -0.8475 -0.0282  1.3213
   85SOPE  H16Y 7976   1.384   0.021   4.450 -1.0859 -0.1768  2.6487
   85SOPE  C317 7977   1.499   0.053   4.618  0.1957  0.5492 -0.1082
   85SOPE  H17X 7978   1.437   0.142   4.641 -0.5882  0.9641 -3.3020
   85SOPE  H17Y 7979   1.605   0.060   4.652  0.3299  0.9976 -0.5983
   85SOPE  C318 7980   1.433  -0.067   4.690  0.2669  0.7972  0.1401
   85SOPE  H18X 7981   1.457  -0.051   4.797 -3.1591  1.9207  0.8344
   85SOPE  H18Y 7982   1.484  -0.154   4.643 -0.8020  1.2486 -1.9699
   85SOPE  H18Z 7983   1.323  -0.061   4.679  0.2884  0.6139 -0.2127
   86SOPE     N 7984   2.898   2.228   2.970 -0.0844  0.1845 -0.1513
   86SOPE   HN1 7985   2.962   2.295   2.922 -0.0547 -0.5572 -1.1828
   86SOPE   HN2 7986   2.893   2.257   3.069  0.3173 -0.2616  0.0034
   86SOPE   HN3 7987   2.939   2.133   2.956 -0.3643  0.2862 -1.9515
   86SOPE   C12 7988   2.767   2.210   2.891 -0.4921 -0.6881 -0.3030
   86SOPE  H12A 7989   2.688   2.192   2.968  1.8366  0.5058  2.5688
   86SOPE  H12B 7990   2.787   2.114   2.839  1.1669 -0.8147  0.4962
   86SOPE   C11 7991   2.717   2.331   2.808  0.0873 -0.1836 -0.4234
   86SOPE  H11A 7992   2.704   2.412   2.882 -0.5667  0.4845 -1.2551
   86SOPE  H11B 7993   2.617   2.305   2.768  0.0989  0.8594 -1.1500
   86SOPE     P 7994   2.937   2.464   2.726  0.1145 -0.0319  0.3078
   86SOPE   O13 7995   2.999   2.507   2.600 -0.2132  0.0645 -0.1042
   86SOPE   O14 7996   3.028   2.386   2.811 -0.1184  0.1304 -0.2923
   86SOPE   O12 7997   2.802   2.374   2.701  0.5475 -0.0264  0.2019
   86SOPE   O11 7998   2.885   2.584   2.807 -0.2166 -0.1754  0.5693
   86SOPE    C1 7999   2.983   2.680   2.851 -0.0380 -0.0830 -0.3822
   86SOPE    HA 8000   2.952   2.785   2.831  1.2293  0.8862  2.2721
   86SOPE    HB 8001   3.085   2.670   2.809  0.1398 -0.5362  0.1427
   86SOPE    C2 8002   2.989   2.673   3.010  0.7909  0.4739 -0.1899
   86SOPE    HS 8003   2.951   2.573   3.039 -0.4185  1.3829  1.5081
   86SOPE   O21 8004   2.894   2.769   3.066 -0.7224 -0.0066  1.1338
   86SOPE   C21 8005   2.811   2.720   3.149  0.3095 -0.3649  0.1843
   86SOPE   O22 8006   2.820   2.610   3.204  0.0288 -0.1864  0.0301
   86SOPE   C22 8007   2.694   2.814   3.158 -0.0366  0.5035  0.0586
   86SOPE   H2R 8008   2.652   2.823   3.055  0.3054 -3.0875 -0.5248
   86SOPE   H2S 8009   2.742   2.905   3.200  0.4434  0.8144 -1.1242
   86SOPE    C3 8010   3.131   2.693   3.060 -0.5920  0.0424 -0.0410
   86SOPE    HX 8011   3.164   2.777   2.994 -0.7399  0.0551 -0.0984
   86SOPE    HY 8012   3.182   2.595   3.045 -0.0581 -0.1423  2.4951
   86SOPE   O31 8013   3.131   2.744   3.197 -0.3502 -0.5838  0.2610
   86SOPE   C31 8014   3.109   2.649   3.286  0.1673  0.8035 -0.1568
   86SOPE   O32 8015   3.089   2.530   3.267  0.5222  0.2050 -0.0714
   86SOPE   C32 8016   3.105   2.717   3.415  0.4143  0.5031 -0.5771
   86SOPE   H2X 8017   3.029   2.667   3.479  0.7056 -0.1061 -0.6965
   86SOPE   H2Y 8018   3.061   2.818   3.411 -0.2427  0.1755 -2.6302
   86SOPE   C23 8019   2.583   2.766   3.256 -0.3511 -0.2881  0.4630
   86SOPE   H3R 8020   2.547   2.661   3.250  0.0661 -0.6657  3.2512
   86SOPE   H3S 8021   2.495   2.833   3.241 -0.7250 -0.9168 -0.2016
   86SOPE   C24 8022   2.631   2.776   3.404  0.1913  0.0120  0.0610
   86SOPE   H4R 8023   2.717   2.710   3.430  0.2660 -0.9786 -2.4336
   86SOPE   H4S 8024   2.650   2.881   3.433 -4.6369  1.4880 -1.1645
   86SOPE   C25 8025   2.506   2.748   3.492  0.8003 -0.7386  0.0290
   86SOPE   H5R 8026   2.432   2.816   3.445  0.3248 -1.6435 -0.5506
   86SOPE   H5S 8027   2.483   2.640   3.486 -1.0008 -0.3055 -1.9670
   86SOPE   C26 8028   2.514   2.785   3.642  0.1844 -0.1614  0.1220
   86SOPE   H6R 8029   2.570   2.881   3.642  1.4691 -0.8756 -1.1197
   86SOPE   H6S 8030   2.412   2.796   3.684  0.0352  3.0723 -0.8478
   86SOPE   C27 8031   2.588   2.676   3.725  0.5896 -0.2453  1.2328
   86SOPE   H7R 8032   2.533   2.580   3.710 -1.6598  0.7898  2.4787
   86SOPE   H7S 8033   2.693   2.662   3.691  0.4316 -0.4333  0.8130
   86SOPE   C28 8034   2.603   2.711   3.872 -0.4211 -0.1828  0.6132
   86SOPE   H8R 8035   2.509   2.678   3.920 -0.8321 -1.3410 -0.8961
   86SOPE   H8S 8036   2.683   2.643   3.908  2.8068  3.5219  1.0840
   86SOPE   C29 8037   2.635   2.848   3.914 -0.9307 -0.2599 -0.9470
   86SOPE   H91 8038   2.556   2.917   3.881 -1.6540 -0.3955  0.4358
   86SOPE  C210 8039   2.737   2.897   3.994 -0.2033  0.0751  0.1449
   86SOPE  H101 8040   2.739   3.007   4.003  1.8625  0.2651 -1.7770
   86SOPE  C211 8041   2.845   2.819   4.064  0.0165  0.0443 -0.0002
   86SOPE  H11R 8042   2.943   2.868   4.046 -0.6675  1.4105 -0.1164
   86SOPE  H11S 8043   2.862   2.719   4.019  0.1670 -0.0729  0.3165
   86SOPE  C212 8044   2.823   2.809   4.211 -0.5897  0.5404  0.4137
   86SOPE  H12R 8045   2.885   2.736   4.267  0.0560  1.5044  0.9884
   86SOPE  H12S 8046   2.714   2.794   4.226 -0.9727  1.2517 -1.3712
   86SOPE  C213 8047   2.854   2.941   4.279 -0.0820  0.9816 -0.2802
   86SOPE  H13R 8048   2.771   3.014   4.273 -0.9644  0.0312 -0.0579
   86SOPE  H13S 8049   2.942   2.993   4.235 -0.5065  0.9449 -1.1812
   86SOPE  C214 8050   2.889   2.929   4.432  0.2314 -0.3288 -0.3915
   86SOPE  H14R 8051   2.910   3.023   4.487  1.7862 -0.7413 -0.2306
   86SOPE  H14S 8052   2.977   2.863   4.444 -0.9452 -1.7973  0.4388
   86SOPE  C215 8053   2.777   2.854   4.508 -0.3269 -0.6722  0.0582
   86SOPE  H15R 8054   2.729   2.772   4.450 -0.6062  1.1142 -2.3788
   86SOPE  H15S 8055   2.700   2.934   4.510 -1.1955 -1.3562 -2.3517
   86SOPE  C216 8056   2.824   2.826   4.657 -0.4066 -0.2365 -0.5487
   86SOPE  H16R 8057   2.913   2.760   4.655  0.4082  0.8133  0.2864
   86SOPE  H16S 8058   2.741   2.775   4.709 -2.0180  0.4759 -2.2753
   86SOPE  C217 8059   2.864   2.950   4.739  0.0392 -0.3182  0.3878
   86SOPE  H17R 8060   2.793   3.031   4.717 -0.9184 -0.7331  1.8064
   86SOPE  H17S 8061   2.968   2.976   4.709  0.1726  0.6951  1.6500
   86SOPE  C218 8062   2.870   2.938   4.898  0.3885 -0.7144 -0.0967
   86SOPE  H18R 8063   2.815   2.843   4.919  0.0451 -0.4101  0.4003
   86SOPE  H18S 8064   2.824   3.026   4.947 -3.8086 -2.4559 -0.4410
   86SOPE  H18T 8065   2.976   2.920   4.926  0.3356  2.3499  2.5879
   86SOPE   C33 8066   3.232   2.707   3.495 -0.3534 -0.4633 -0.3161
   86SOPE   H3X 8067   3.300   2.776   3.440 -0.9982  0.4897  0.0784
   86SOPE   H3Y 8068   3.276   2.605   3.502 -1.2176 -0.8788 -0.7657
   86SOPE   C34 8069   3.223   2.767   3.634 -0.4620  0.9573  0.1371
   86SOPE   H4X 8070   3.171   2.864   3.621  1.4927  1.8262 -1.7685
   86SOPE   H4Y 8071   3.328   2.791   3.664 -0.1161 -1.1625  0.7874
   86SOPE   C35 8072   3.161   2.676   3.739  0.2045 -0.0253  0.3473
   86SOPE   H5X 8073   3.224   2.584   3.737  1.6083  0.7766  2.9946
   86SOPE   H5Y 8074   3.060   2.643   3.706 -0.2053  1.6845 -0.1829
   86SOPE   C36 8075   3.162   2.730   3.878 -0.3170  0.0225 -0.0422
   86SOPE   H6X 8076   3.101   2.656   3.934 -3.0804  0.6214 -2.0712
   86SOPE   H6Y 8077   3.115   2.827   3.904  0.1987  0.6558 -1.4068
   86SOPE   C37 8078   3.306   2.737   3.940 -0.4001  0.1989  0.4008
   86SOPE   H7X 8079   3.363   2.824   3.900 -0.8253  0.4627  0.3614
   86SOPE   H7Y 8080   3.348   2.637   3.921  0.5814  1.0282 -2.1923
   86SOPE   C38 8081   3.305   2.749   4.091 -0.0014 -0.4228 -0.3263
   86SOPE   H8X 8082   3.405   2.753   4.140 -0.3262  3.3331  0.3455
   86SOPE   H8Y 8083   3.241   2.677   4.145  1.5614 -2.4991 -1.1065
   86SOPE   C39 8084   3.255   2.886   4.138 -0.2576 -0.0010  0.1137
   86SOPE   H9X 8085   3.153   2.919   4.109 -0.0201  2.1036  1.4226
   86SOPE   H9Y 8086   3.334   2.958   4.109 -1.0281  0.7142 -0.2530
   86SOPE  C310 8087   3.254   2.873   4.294 -0.0242  0.1772  0.3045
   86SOPE  H10X 8088   3.360   2.852   4.321  0.1834 -1.1967 -1.4005
   86SOPE  H10Y 8089   3.196   2.788   4.335  0.7080  0.4132  1.9150
   86SOPE  C311 8090   3.225   3.006   4.367 -0.6073  0.1087  0.9386
   86SOPE  H11X 8091   3.114   3.018   4.371 -0.6603 -0.4274  1.1845
   86SOPE  H11Y 8092   3.270   3.080   4.298 -2.7172  1.5852  1.0605
   86SOPE  C312 8093   3.287   3.014   4.505  0.7758  0.1261  0.5649
   86SOPE  H12X 8094   3.256   3.110   4.551  2.3004  1.7544 -1.6086
   86SOPE  H12Y 8095   3.397   2.997   4.501  1.2107  1.5713  3.4271
   86SOPE  C313 8096   3.255   2.905   4.606  0.1420  0.0276 -0.1916
   86SOPE  H13X 8097   3.287   2.809   4.559  1.6087  1.1446 -1.5807
   86SOPE  H13Y 8098   3.146   2.890   4.619  0.2414  0.9514  2.0763
   86SOPE  C314 8099   3.325   2.934   4.735 -0.3264 -0.9474 -0.8071
   86SOPE  H14X 8100   3.293   2.878   4.825 -1.5615 -1.1119 -1.3195
   86SOPE  H14Y 8101   3.300   3.037   4.768  0.7556 -0.7912 -0.4342
   86SOPE  C315 8102   3.477   2.911   4.717 -0.3969 -0.5213 -0.5372
   86SOPE  H15X 8103   3.523   2.998   4.665  0.5391 -1.6645 -1.6934
   86SOPE  H15Y 8104   3.492   2.819   4.657 -0.3986 -0.5621 -0.4747
   86SOPE  C316 8105   3.541   2.883   4.853  0.3662  0.0342 -0.0358
   86SOPE  H16X 8106   3.639   2.834   4.836  0.7221  1.1466 -1.4349
   86SOPE  H16Y 8107   3.472   2.816   4.908 -0.3205 -0.2685 -1.2258
   86SOPE  C317 8108   3.550   3.016   4.933 -0.5049 -0.1596  0.1506
   86SOPE  H17X 8109   3.448   3.059   4.947 -0.1625 -0.0979  3.2758
   86SOPE  H17Y 8110   3.620   3.087   4.884  0.0848 -1.6362 -1.2363
   86SOPE  C318 8111   3.597   3.001   5.079 -0.5966  0.0914  0.4666
   86SOPE  H18X 8112   3.685   2.932   5.076 -1.0066 -0.4882  1.4349
   86SOPE  H18Y 8113   3.512   2.964   5.140 -0.2964 -0.4353  0.5730
   86SOPE  H18Z 8114   3.625   3.099   5.123  0.4069 -0.2868  0.6898
   87SOPE     N 8115   3.291   2.381   2.852  0.0966  0.4562  0.3174
   87SOPE   HN1 8116   3.316   2.345   2.947 -2.4091 -1.1133  0.4944
   87SOPE   HN2 8117   3.318   2.481   2.845 -0.6631  0.5390 -2.4057
   87SOPE   HN3 8118   3.188   2.382   2.841  0.1182 -0.0185  0.0426
   87SOPE   C12 8119   3.351   2.296   2.742  0.4653 -0.6345  0.0480
   87SOPE  H12A 8120   3.451   2.337   2.715  1.5148 -2.3288  1.2025
   87SOPE  H12B 8121   3.271   2.307   2.666  0.0545 -1.6420  0.3267
   87SOPE   C11 8122   3.375   2.151   2.783  0.1029 -0.0770  0.1584
   87SOPE  H11A 8123   3.456   2.148   2.860  0.8133 -0.8059 -0.5981
   87SOPE  H11B 8124   3.417   2.096   2.696  0.1888 -0.2909  0.3348
   87SOPE     P 8125   3.163   2.007   2.750  0.6149 -0.0781 -0.1342
   87SOPE   O13 8126   3.215   1.876   2.709  0.0653  0.5223  0.2504
   87SOPE   O14 8127   3.109   2.102   2.653 -0.7567 -0.0406  0.2455
   87SOPE   O12 8128   3.263   2.082   2.845 -0.4832  0.3547  0.9915
   87SOPE   O11 8129   3.055   1.985   2.867  0.0256 -0.0092  0.4763
   87SOPE    C1 8130   3.092   1.898   2.976  0.1931 -0.0875  0.2927
   87SOPE    HA 8131   3.124   1.965   3.059 -0.4089  1.7914 -0.9099
   87SOPE    HB 8132   3.169   1.828   2.938 -0.4822 -1.4620  1.3573
   87SOPE    C2 8133   2.970   1.821   3.023 -0.2380 -0.0126 -0.3529
   87SOPE    HS 8134   2.931   1.750   2.947 -0.2337  0.5258 -0.8657
   87SOPE   O21 8135   2.873   1.918   3.068  0.0660 -0.5581  0.1455
   87SOPE   C21 8136   2.755   1.866   3.088  0.2931  0.0499  0.8198
   87SOPE   O22 8137   2.713   1.762   3.037 -0.2869 -0.4268 -0.4948
   87SOPE   C22 8138   2.678   1.957   3.183 -0.1240  0.5489 -0.2499
   87SOPE   H2R 8139   2.571   1.951   3.153 -1.0588 -1.3096  2.9506
   87SOPE   H2S 8140   2.702   2.065   3.168 -0.7996  0.6218 -0.8914
   87SOPE    C3 8141   3.011   1.745   3.155 -0.0613 -0.5930 -0.5281
   87SOPE    HX 8142   3.063   1.811   3.228 -2.0798 -0.9479  1.3177
   87SOPE    HY 8143   3.081   1.664   3.125 -0.1515  0.1737 -3.0996
   87SOPE   O31 8144   2.908   1.679   3.233 -0.3910 -0.0085 -0.2898
   87SOPE   C31 8145   2.952   1.624   3.351 -0.4110 -0.1653  0.4828
   87SOPE   O32 8146   3.060   1.641   3.397 -0.5538  0.4623  0.0564
   87SOPE   C32 8147   2.855   1.507   3.387 -0.0002  1.0509 -0.8460
   87SOPE   H2X 8148   2.860   1.439   3.299  0.8653 -1.4983  1.0557
   87SOPE   H2Y 8149   2.754   1.551   3.405 -0.9047 -1.0941 -0.3902
   87SOPE   C23 8150   2.672   1.907   3.322  0.1142  0.3762 -1.0193
   87SOPE   H3R 8151   2.770   1.905   3.374 -1.1853 -0.4133  1.5841
   87SOPE   H3S 8152   2.646   1.799   3.326  0.0455  0.4164  0.0290
   87SOPE   C24 8153   2.566   1.991   3.405  0.0407 -0.0806  0.6915
   87SOPE   H4R 8154   2.604   2.095   3.416 -1.8485  0.4451  3.1107
   87SOPE   H4S 8155   2.472   2.006   3.347 -0.6542  3.2843  2.3967
   87SOPE   C25 8156   2.526   1.942   3.545 -0.4096 -0.1695  0.3569
   87SOPE   H5R 8157   2.488   1.839   3.558  1.3908 -0.6009  2.9795
   87SOPE   H5S 8158   2.614   1.945   3.612 -0.3810  0.7897  0.2927
   87SOPE   C26 8159   2.431   2.045   3.612 -0.1918 -0.6448 -0.0419
   87SOPE   H6R 8160   2.472   2.147   3.597 -0.3127 -0.4737  0.7588
   87SOPE   H6S 8161   2.339   2.032   3.551  1.6941  1.4405 -3.6710
   87SOPE   C27 8162   2.400   1.996   3.762 -0.0529 -0.2980  0.3414
   87SOPE   H7R 8163   2.367   1.890   3.756  0.5912 -0.4924  0.1230
   87SOPE   H7S 8164   2.497   2.004   3.816  0.8913  1.0278 -1.4331
   87SOPE   C28 8165   2.300   2.094   3.829 -0.9497  0.4106 -0.2266
   87SOPE   H8R 8166   2.328   2.196   3.863 -1.9309  0.2653  1.1213
   87SOPE   H8S 8167   2.217   2.123   3.762 -1.5302  2.9202  1.4560
   87SOPE   C29 8168   2.229   2.030   3.942 -0.2365 -0.4382 -0.2946
   87SOPE   H91 8169   2.261   1.926   3.957 -0.3098 -0.2454  1.4871
   87SOPE  C210 8170   2.139   2.090   4.022 -0.3320 -0.4526  0.3037
   87SOPE  H101 8171   2.078   2.036   4.096 -0.9625  0.4455  0.4596
   87SOPE  C211 8172   2.101   2.234   4.006  0.3143  0.2820 -0.0944
   87SOPE  H11R 8173   1.991   2.239   3.998  0.1336 -2.3387 -0.2531
   87SOPE  H11S 8174   2.125   2.286   3.911 -0.8876 -1.2503 -1.3034
   87SOPE  C212 8175   2.139   2.325   4.130 -0.7989 -0.4839 -0.3889
   87SOPE  H12R 8176   2.250   2.325   4.125 -0.8469 -0.3886 -1.9582
   87SOPE  H12S 8177   2.122   2.265   4.222  0.3668  3.4704  2.6648
   87SOPE  C213 8178   2.072   2.461   4.135 -0.3265  0.3887 -0.0114
   87SOPE  H13R 8179   1.987   2.455   4.206  1.0859 -3.4938  1.5734
   87SOPE  H13S 8180   2.021   2.496   4.042  0.9004  0.1325 -0.8113
   87SOPE  C214 8181   2.172   2.571   4.190  0.2457  0.1296 -0.2537
   87SOPE  H14R 8182   2.255   2.581   4.116 -0.4030 -0.0694 -1.0140
   87SOPE  H14S 8183   2.210   2.513   4.277  0.2252 -1.2850 -1.1635
   87SOPE  C215 8184   2.109   2.702   4.237 -0.2460 -0.3888  0.3307
   87SOPE  H15R 8185   2.039   2.676   4.319 -2.0780  1.8774 -0.4149
   87SOPE  H15S 8186   2.058   2.761   4.158  2.4099 -1.2916 -2.2690
   87SOPE  C216 8187   2.215   2.801   4.294  0.4352  0.6321 -0.0938
   87SOPE  H16R 8188   2.164   2.891   4.336 -1.6861 -0.5498 -0.0207
   87SOPE  H16S 8189   2.283   2.833   4.213  1.3040  1.2093  0.8379
   87SOPE  C217 8190   2.301   2.744   4.413  0.0818  0.7034 -0.4734
   87SOPE  H17R 8191   2.345   2.648   4.380  2.0675  0.3924  2.6741
   87SOPE  H17S 8192   2.235   2.706   4.493  0.6969  1.1482  0.2590
   87SOPE  C218 8193   2.403   2.833   4.492 -0.1698 -0.0836 -0.2473
   87SOPE  H18R 8194   2.341   2.913   4.537  0.5943  0.5733 -0.3325
   87SOPE  H18S 8195   2.460   2.875   4.406 -0.0379  1.3208  0.4946
   87SOPE  H18T 8196   2.475   2.781   4.560  1.3137 -1.2740 -2.6032
   87SOPE   C33 8197   2.904   1.421   3.505  0.0580  0.2393  0.6399
   87SOPE   H3X 8198   3.012   1.394   3.492 -0.4752 -2.1180  0.5597
   87SOPE   H3Y 8199   2.847   1.325   3.502  0.6070 -0.0839 -2.2385
   87SOPE   C34 8200   2.887   1.488   3.638  0.4370 -0.2163  0.1223
   87SOPE   H4X 8201   2.963   1.568   3.644  0.0631  0.0310  2.2440
   87SOPE   H4Y 8202   2.904   1.411   3.717  0.1083 -0.9229 -0.4818
   87SOPE   C35 8203   2.751   1.551   3.666 -0.5860  0.0460  0.0133
   87SOPE   H5X 8204   2.681   1.469   3.639 -0.8668  0.1509  0.4016
   87SOPE   H5Y 8205   2.743   1.639   3.599  0.5891 -0.5617 -0.9587
   87SOPE   C36 8206   2.718   1.591   3.816 -0.0520 -0.2541  0.3235
   87SOPE   H6X 8207   2.611   1.619   3.830  0.1994  0.7959  0.2349
   87SOPE   H6Y 8208   2.780   1.674   3.856  0.0644 -0.6297  0.9411
   87SOPE   C37 8209   2.750   1.477   3.915 -0.0751  0.2207 -0.7692
   87SOPE   H7X 8210   2.857   1.452   3.899 -0.1138 -0.7241  0.3182
   87SOPE   H7Y 8211   2.692   1.384   3.893  0.3379 -0.6299  1.4944
   87SOPE   C38 8212   2.737   1.525   4.063 -1.0619  0.4360 -0.0572
   87SOPE   H8X 8213   2.771   1.631   4.072 -0.2670  0.2646 -0.8921
   87SOPE   H8Y 8214   2.804   1.464   4.127 -2.3523  0.6631  1.5857
   87SOPE   C39 8215   2.595   1.494   4.121  0.0973  0.0990  0.3246
   87SOPE   H9X 8216   2.608   1.389   4.155 -3.3244  0.1671  2.2375
   87SOPE   H9Y 8217   2.509   1.492   4.051  0.7957 -1.7480 -0.5770
   87SOPE  C310 8218   2.552   1.577   4.247  0.6585 -0.1316  0.9441
   87SOPE  H10X 8219   2.632   1.584   4.324  0.8376 -0.5806  0.8102
   87SOPE  H10Y 8220   2.464   1.521   4.285 -0.2767 -0.8903 -2.0298
   87SOPE  C311 8221   2.506   1.719   4.210 -0.3184 -0.3485 -0.4558
   87SOPE  H11X 8222   2.424   1.697   4.138 -1.2822 -0.0868  0.5313
   87SOPE  H11Y 8223   2.588   1.772   4.158  0.0822 -0.7758 -0.2725
   87SOPE  C312 8224   2.438   1.799   4.318  0.1179  0.0109 -0.7699
   87SOPE  H12X 8225   2.334   1.762   4.331  0.1168  0.2323 -0.0896
   87SOPE  H12Y 8226   2.435   1.903   4.280  0.9117  0.1856 -0.3745
   87SOPE  C313 8227   2.507   1.789   4.455  0.8071  0.3101  0.3807
   87SOPE  H13X 8228   2.617   1.798   4.438  1.0525 -2.2222  0.1919
   87SOPE  H13Y 8229   2.495   1.682   4.483  2.3587 -0.5090 -1.7361
   87SOPE  C314 8230   2.448   1.889   4.559 -0.0051  0.2658  0.2835
   87SOPE  H14X 8231   2.341   1.864   4.574  0.6690 -2.8930  0.4760
   87SOPE  H14Y 8232   2.451   1.995   4.524 -0.1144 -0.0496 -0.7237
   87SOPE  C315 8233   2.527   1.879   4.684 -0.2437  0.3426  0.3131
   87SOPE  H15X 8234   2.513   1.969   4.748  1.0641  1.4226 -0.8442
   87SOPE  H15Y 8235   2.635   1.880   4.657 -0.0350 -1.2779  0.9998
   87SOPE  C316 8236   2.505   1.745   4.760  0.0659  0.2165  0.3994
   87SOPE  H16X 8237   2.581   1.757   4.841 -0.0812 -0.7057  0.6848
   87SOPE  H16Y 8238   2.524   1.659   4.693 -0.7557 -0.9626  1.6179
   87SOPE  C317 8239   2.361   1.733   4.817  0.2694 -0.4298  0.2656
   87SOPE  H17X 8240   2.356   1.630   4.857  0.4586 -1.8424 -3.0662
   87SOPE  H17Y 8241   2.284   1.736   4.737  0.7748  4.6093 -0.3956
   87SOPE  C318 8242   2.337   1.835   4.929 -0.6355 -0.3517 -0.4379
   87SOPE  H18X 8243   2.236   1.823   4.974 -0.0603 -0.3112  0.9189
   87SOPE  H18Y 8244   2.343   1.931   4.874 -2.3175 -1.0265 -1.9153
   87SOPE  H18Z 8245   2.423   1.819   4.998  0.5954  2.2912 -1.2240
   88SOPE     N 8246   4.011   1.878   3.146  0.2260  0.2160  0.0795
   88SOPE   HN1 8247   3.950   1.887   3.230  0.9135  4.3022  0.3697
   88SOPE   HN2 8248   3.947   1.876   3.064 -1.7191  0.5026  1.4981
   88SOPE   HN3 8249   4.054   1.785   3.157 -1.3042 -0.6516 -0.8656
   88SOPE   C12 8250   4.124   1.972   3.143  0.0560  0.3744 -0.1636
   88SOPE  H12A 8251   4.178   1.955   3.238  0.2613 -1.1117 -0.5218
   88SOPE  H12B 8252   4.090   2.078   3.137  1.4623  1.0225  2.0175
   88SOPE   C11 8253   4.224   1.929   3.030  0.0270 -0.2877 -0.1644
   88SOPE  H11A 8254   4.315   1.994   3.030  0.1723 -0.4877  0.6258
   88SOPE  H11B 8255   4.175   1.970   2.938  0.5098  1.2982  0.2444
   88SOPE     P 8256   4.380   1.717   3.003  0.1835 -0.1843 -0.3778
   88SOPE   O13 8257   4.442   1.756   2.873 -0.5866  0.5478 -0.4903
   88SOPE   O14 8258   4.369   1.572   3.031 -0.9751  0.0615  0.7591
   88SOPE   O12 8259   4.241   1.791   3.020 -0.3275 -0.0072  0.0001
   88SOPE   O11 8260   4.461   1.797   3.108 -0.0407  0.2077 -0.8361
   88SOPE    C1 8261   4.592   1.845   3.087  0.4045 -0.1158  0.1023
   88SOPE    HA 8262   4.628   1.909   3.171 -0.8310 -0.3467  0.8398
   88SOPE    HB 8263   4.601   1.915   3.002 -0.9586  1.6715  1.3700
   88SOPE    C2 8264   4.699   1.726   3.076 -0.5740 -0.2804 -0.3061
   88SOPE    HS 8265   4.681   1.685   2.975 -1.9502  1.1276 -0.6721
   88SOPE   O21 8266   4.684   1.646   3.193 -0.4895  1.1589  0.0936
   88SOPE   C21 8267   4.727   1.514   3.181 -0.1583  0.3037 -0.0530
   88SOPE   O22 8268   4.758   1.465   3.074  0.3156  0.4908 -0.0431
   88SOPE   C22 8269   4.750   1.453   3.319  0.1561 -0.0014 -0.0549
   88SOPE   H2R 8270   4.718   1.527   3.395  0.7547 -1.2194  1.4363
   88SOPE   H2S 8271   4.860   1.442   3.317  0.0212 -1.6786 -0.6773
   88SOPE    C3 8272   4.845   1.782   3.074 -0.2851 -0.0138 -0.1958
   88SOPE    HX 8273   4.849   1.857   2.992 -2.2770 -0.0813 -0.3848
   88SOPE    HY 8274   4.910   1.699   3.040  0.6191  0.9422 -0.8718
   88SOPE   O31 8275   4.887   1.851   3.193  0.8618  0.4598 -0.3206
   88SOPE   C31 8276   4.945   1.776   3.285 -0.2410  0.4855  0.5776
   88SOPE   O32 8277   5.021   1.682   3.264  0.4010 -0.0887 -0.9240
   88SOPE   C32 8278   4.904   1.832   3.419 -0.2707 -0.3422  0.1979
   88SOPE   H2X 8279   4.795   1.854   3.432  0.0277  0.8837  0.8216
   88SOPE   H2Y 8280   4.947   1.935   3.417  2.0688 -1.1575  2.5521
   88SOPE   C23 8281   4.683   1.316   3.349  0.1460  0.8272 -0.0555
   88SOPE   H3R 8282   4.726   1.239   3.282 -0.1108  1.5537 -1.0872
   88SOPE   H3S 8283   4.573   1.311   3.339 -0.0379  2.5724  0.6096
   88SOPE   C24 8284   4.709   1.253   3.494 -0.6138 -0.2640  0.9695
   88SOPE   H4R 8285   4.648   1.161   3.507 -0.1951 -0.6333  0.3734
   88SOPE   H4S 8286   4.817   1.232   3.506 -0.7715 -1.3699  0.5880
   88SOPE   C25 8287   4.674   1.353   3.604 -0.1366 -0.1135  0.1231
   88SOPE   H5R 8288   4.724   1.451   3.585  0.2806 -0.2792  0.3424
   88SOPE   H5S 8289   4.564   1.362   3.612 -0.2882 -1.1403 -0.5592
   88SOPE   C26 8290   4.714   1.310   3.751 -0.3435 -0.7594  0.2763
   88SOPE   H6R 8291   4.824   1.304   3.755 -0.0748  2.5104  0.3550
   88SOPE   H6S 8292   4.696   1.391   3.825  1.9375  0.9758 -0.9670
   88SOPE   C27 8293   4.657   1.180   3.805 -0.0031  0.4752  0.2123
   88SOPE   H7R 8294   4.548   1.181   3.823  0.2080  0.3734  1.6100
   88SOPE   H7S 8295   4.670   1.104   3.724  0.1454  0.3754  0.3296
   88SOPE   C28 8296   4.722   1.126   3.939 -0.1765  0.4239  0.2589
   88SOPE   H8R 8297   4.829   1.102   3.918 -0.4060  0.1317 -0.6111
   88SOPE   H8S 8298   4.722   1.202   4.021  1.8943 -0.9235  1.6146
   88SOPE   C29 8299   4.650   0.999   3.976 -0.3379  0.0070  0.3929
   88SOPE   H91 8300   4.704   0.918   3.927  2.3870  0.8554  1.7818
   88SOPE  C210 8301   4.556   0.968   4.063  0.1661 -0.4276 -0.2502
   88SOPE  H101 8302   4.525   0.862   4.065  0.7845 -0.5955  1.6114
   88SOPE  C211 8303   4.484   1.072   4.143 -0.0560 -0.0653  0.0515
   88SOPE  H11R 8304   4.374   1.055   4.146  0.0167 -0.4949  0.7973
   88SOPE  H11S 8305   4.495   1.170   4.093  0.6431 -0.3273 -0.3178
   88SOPE  C212 8306   4.546   1.096   4.286 -0.0761  0.2989 -0.2278
   88SOPE  H12R 8307   4.495   1.188   4.324 -1.4095 -1.1463  1.6988
   88SOPE  H12S 8308   4.656   1.109   4.277  0.4235 -1.8419  1.7590
   88SOPE  C213 8309   4.523   0.982   4.387 -0.6995  0.2017  0.2695
   88SOPE  H13R 8310   4.574   1.016   4.479 -0.9451 -1.1293  0.9176
   88SOPE  H13S 8311   4.572   0.887   4.355 -1.9714 -1.6975  3.5109
   88SOPE  C214 8312   4.377   0.958   4.422  0.1201 -0.6212  0.3649
   88SOPE  H14R 8313   4.306   0.942   4.338  1.8820 -2.0492 -0.9372
   88SOPE  H14S 8314   4.342   1.059   4.453  0.0369  0.0773 -1.8014
   88SOPE  C215 8315   4.358   0.854   4.529  0.1466  0.5374 -0.0415
   88SOPE  H15R 8316   4.421   0.863   4.620 -0.6061  0.5993  0.4861
   88SOPE  H15S 8317   4.381   0.753   4.491  1.3110 -0.2584  2.5563
   88SOPE  C216 8318   4.201   0.856   4.560 -0.4899 -0.4033  0.0761
   88SOPE  H16R 8319   4.142   0.842   4.468 -0.0814 -0.4537 -0.1821
   88SOPE  H16S 8320   4.176   0.954   4.605  0.3636 -1.4143  2.9727
   88SOPE  C217 8321   4.164   0.740   4.657  0.2093  0.1258 -0.2487
   88SOPE  H17R 8322   4.239   0.658   4.661 -1.4541 -1.4251  0.3051
   88SOPE  H17S 8323   4.062   0.702   4.638 -0.4663  1.4670  0.5425
   88SOPE  C218 8324   4.136   0.783   4.805  0.3244 -0.4204 -0.0494
   88SOPE  H18R 8325   4.102   0.690   4.857  3.3196 -0.3145  2.3788
   88SOPE  H18S 8326   4.053   0.857   4.808  0.7591  0.2427 -2.2908
   88SOPE  H18T 8327   4.229   0.812   4.858  1.5523 -0.0355 -2.2698
   88SOPE   C33 8328   4.955   1.747   3.539 -0.7208 -0.3744 -0.4743
   88SOPE   H3X 8329   5.065   1.747   3.531 -0.7951  1.9982 -3.4601
   88SOPE   H3Y 8330   4.917   1.643   3.528  2.9170 -1.7477 -1.4418
   88SOPE   C34 8331   4.907   1.812   3.678  0.4467 -0.3573  0.4267
   88SOPE   H4X 8332   4.812   1.868   3.663  0.5018 -0.2134  0.6047
   88SOPE   H4Y 8333   4.986   1.881   3.717  1.6982  0.5696 -3.3738
   88SOPE   C35 8334   4.859   1.712   3.788  0.0011  0.7611 -0.3259
   88SOPE   H5X 8335   4.774   1.653   3.749  0.5569 -1.3563  1.4850
   88SOPE   H5Y 8336   4.807   1.767   3.870 -0.5513 -1.4764  0.9069
   88SOPE   C36 8337   4.967   1.642   3.862  0.4103  0.7359 -0.5374
   88SOPE   H6X 8338   5.053   1.707   3.890  1.0456  0.1523 -1.0835
   88SOPE   H6Y 8339   5.004   1.564   3.792  2.7223  0.1033  1.2429
   88SOPE   C37 8340   4.916   1.579   3.995  0.5032  0.5745  0.3283
   88SOPE   H7X 8341   4.839   1.504   3.967  0.1821  1.1421 -0.3192
   88SOPE   H7Y 8342   4.881   1.655   4.069  0.1162 -0.7981  1.6258
   88SOPE   C38 8343   5.033   1.507   4.072 -0.7959 -0.6911  0.2983
   88SOPE   H8X 8344   5.124   1.570   4.059 -1.6096  0.7705  1.4275
   88SOPE   H8Y 8345   5.054   1.412   4.018  0.1325  1.1830 -2.9293
   88SOPE   C39 8346   5.012   1.486   4.223  0.2518  0.3591 -0.0049
   88SOPE   H9X 8347   4.996   1.588   4.265 -0.2642 -0.5208  2.1147
   88SOPE   H9Y 8348   5.105   1.445   4.266 -1.3243 -3.6523 -0.0428
   88SOPE  C310 8349   4.887   1.389   4.256  0.0974  0.3651  0.4917
   88SOPE  H10X 8350   4.917   1.281   4.256  0.7960  0.5343  1.7752
   88SOPE  H10Y 8351   4.808   1.414   4.182  0.0281  1.1192  0.8178
   88SOPE  C311 8352   4.843   1.413   4.408 -0.1616  0.5515  0.7680
   88SOPE  H11X 8353   4.847   1.524   4.405  1.6483  0.5076  0.5949
   88SOPE  H11Y 8354   4.925   1.375   4.473 -0.5577 -1.0506  0.3865
   88SOPE  C312 8355   4.714   1.350   4.452 -0.4827 -0.1168 -1.1725
   88SOPE  H12X 8356   4.724   1.240   4.465  1.1148  0.1924  0.8640
   88SOPE  H12Y 8357   4.638   1.357   4.372 -1.0802 -2.6855 -0.9000
   88SOPE  C313 8358   4.660   1.405   4.585  0.3070  0.2541 -0.5548
   88SOPE  H13X 8359   4.675   1.514   4.600  0.0082  0.4474 -1.6123
   88SOPE  H13Y 8360   4.730   1.357   4.657 -1.9230  2.3923  3.4394
   88SOPE  C314 8361   4.518   1.364   4.623 -0.4398 -0.0756 -0.3095
   88SOPE  H14X 8362   4.482   1.260   4.605 -1.5607 -0.1626  2.1244
   88SOPE  H14Y 8363   4.452   1.430   4.562 -1.6152  0.1189  1.1192
   88SOPE  C315 8364   4.493   1.394   4.769  0.1738  0.2357  0.0201
   88SOPE  H15X 8365   4.498   1.502   4.792 -1.4789  0.1627  0.9084
   88SOPE  H15Y 8366   4.556   1.334   4.839 -0.1776  0.6721  0.7285
   88SOPE  C316 8367   4.343   1.371   4.797 -0.1798  0.8379  0.0189
   88SOPE  H16X 8368   4.280   1.405   4.712 -2.5861 -1.1638  0.8903
   88SOPE  H16Y 8369   4.326   1.436   4.886 -1.2584 -0.0394  0.4687
   88SOPE  C317 8370   4.317   1.223   4.836 -0.6937  0.0789  0.3948
   88SOPE  H17X 8371   4.390   1.181   4.909 -0.5801 -2.0580 -0.8492
   88SOPE  H17Y 8372   4.304   1.155   4.749 -2.6829 -0.1354  0.8233
   88SOPE  C318 8373   4.181   1.218   4.906 -0.2507 -0.7681 -0.0301
   88SOPE  H18X 8374   4.166   1.121   4.957 -2.8090  0.0221  0.8780
   88SOPE  H18Y 8375   4.107   1.233   4.824  0.0532  2.4797  0.1679
   88SOPE  H18Z 8376   4.176   1.289   4.991  2.4033 -0.5382  0.0182
   89SAPC     N 8377   5.906   3.331   7.140  0.9492 -0.0923 -0.9306
   89SAPC   C12 8378   5.985   3.255   7.039  0.3075 -0.1454 -0.2859
   89SAPC  H12A 8379   5.916   3.191   6.985 -0.1525 -1.6045  1.8964
   89SAPC  H12B 8380   6.057   3.191   7.088 -0.1667 -1.3622 -1.1351
   89SAPC   C13 8381   5.820   3.441   7.085  0.0850 -1.2943 -0.5836
   89SAPC  H13A 8382   5.744   3.408   7.016 -0.3442  0.6789 -1.1053
   89SAPC  H13B 8383   5.782   3.501   7.166  1.2602 -1.4838  0.1396
   89SAPC  H13C 8384   5.886   3.499   7.023 -0.3263  0.1222  0.2565
   89SAPC   C14 8385   5.812   3.248   7.221  0.1284  0.9045 -0.1736
   89SAPC  H14A 8386   5.743   3.195   7.158 -0.1750  0.0629  0.8458
   89SAPC  H14B 8387   5.873   3.186   7.284  0.3924  1.8250  0.5088
   89SAPC  H14C 8388   5.750   3.311   7.283  1.2562  1.3264  0.5587
   89SAPC   C15 8389   5.999   3.392   7.245 -1.1368  0.8368 -1.5721
   89SAPC  H15A 8390   5.942   3.448   7.317  0.8147  2.0859 -0.9154
   89SAPC  H15B 8391   6.071   3.328   7.294  0.4739  2.6234 -1.4932
   89SAPC  H15C 8392   6.074   3.451   7.195 -0.0587  0.7544 -0.1375
   89SAPC   C11 8393   6.057   3.331   6.927 -0.3256 -0.5791  0.1225
   89SAPC  H11A 8394   5.987   3.397   6.871  0.7255  0.3411 -0.1525
   89SAPC  H11B 8395   6.104   3.257   6.859  0.7343  2.2414 -2.4273
   89SAPC     P 8396   6.313   3.354   7.002 -0.4459 -0.1199  0.2088
   89SAPC   O13 8397   6.365   3.415   7.125  0.1642  0.3064 -0.0365
   89SAPC   O14 8398   6.301   3.206   6.999 -0.1547  0.2404  0.1011
   89SAPC   O12 8399   6.174   3.412   6.972 -0.3128  0.9387  0.4565
   89SAPC   O11 8400   6.405   3.393   6.877  0.0026 -0.3764 -0.4497
   89SAPC    C1 8401   6.438   3.531   6.845  0.5885  0.1971  0.1365
   89SAPC    HA 8402   6.401   3.550   6.742 -1.3294  0.0064  0.7445
   89SAPC    HB 8403   6.399   3.613   6.910  1.2748  1.5725 -1.1067
   89SAPC    C2 8404   6.587   3.570   6.848 -0.0417 -0.5118 -0.0662
   89SAPC    HS 8405   6.619   3.570   6.954  1.5773  2.0065 -0.4721
   89SAPC   O21 8406   6.591   3.708   6.803  0.0299  0.6163 -0.0445
   89SAPC   C21 8407   6.706   3.773   6.812  0.1095 -0.2297 -0.2132
   89SAPC   O22 8408   6.811   3.735   6.864  0.2906  0.7733 -0.2892
   89SAPC   C22 8409   6.667   3.907   6.749  0.2126  0.2490 -0.9394
   89SAPC   H2R 8410   6.561   3.908   6.714 -0.5577 -1.9119  1.0484
   89SAPC   H2S 8411   6.686   3.983   6.828  3.0116 -0.4417 -0.8509
   89SAPC    C3 8412   6.668   3.470   6.769  0.1641  0.7914  0.2609
   89SAPC    HX 8413   6.668   3.370   6.818 -1.8777  1.1699  1.1527
   89SAPC    HY 8414   6.772   3.509   6.775  0.1278  0.9103  0.1029
   89SAPC   O31 8415   6.620   3.469   6.630 -0.2053  0.5497 -0.3362
   89SAPC   C31 8416   6.586   3.348   6.574  0.3378 -0.5645 -0.0133
   89SAPC   O32 8417   6.597   3.236   6.620  0.0486  0.3066  0.0036
   89SAPC   C32 8418   6.528   3.379   6.442 -0.3118  0.0759  0.7213
   89SAPC   H2X 8419   6.536   3.487   6.416  0.2247 -0.0005  0.5599
   89SAPC   H2Y 8420   6.421   3.349   6.447 -0.6715  1.2196  0.3473
   89SAPC   C23 8421   6.763   3.952   6.642 -0.3077  0.3160 -0.2709
   89SAPC   H3R 8422   6.866   3.913   6.656 -0.7241 -0.4223  0.8278
   89SAPC   H3S 8423   6.769   4.063   6.638 -0.7158  0.4206  1.2736
   89SAPC   C24 8424   6.721   3.913   6.502  0.5465  0.5339  1.0015
   89SAPC   H4R 8425   6.792   3.956   6.428  0.9271  0.1477  1.1362
   89SAPC   H4S 8426   6.629   3.973   6.487 -0.0086 -0.1136  1.7243
   89SAPC   C25 8427   6.702   3.763   6.483  0.7115  0.2907 -0.3963
   89SAPC   H5R 8428   6.624   3.729   6.552  0.0520  1.2254 -0.6605
   89SAPC   C26 8429   6.750   3.683   6.388 -0.0122  0.2519  0.2416
   89SAPC   H6R 8430   6.730   3.576   6.406 -2.2995  0.9098  1.9945
   89SAPC   C27 8431   6.850   3.717   6.278 -0.2826  0.4854 -0.1543
   89SAPC   H7R 8432   6.919   3.634   6.253 -0.5710  0.7899 -2.0861
   89SAPC   H7S 8433   6.915   3.803   6.305  0.2680 -0.1872  0.6979
   89SAPC   C28 8434   6.780   3.749   6.149  1.1942  0.4081 -0.4839
   89SAPC   H8R 8435   6.670   3.749   6.147  1.1838  1.2178 -0.0919
   89SAPC   C29 8436   6.846   3.778   6.036  0.5956 -0.1646 -0.0278
   89SAPC   H9R 8437   6.788   3.799   5.945 -0.2480 -1.4043  0.1824
   89SAPC  C210 8438   6.993   3.779   6.018  0.0279 -0.4735  0.0538
   89SAPC  H10R 8439   7.027   3.674   6.031 -0.3570 -0.5724  0.2718
   89SAPC  H10S 8440   7.044   3.831   6.101  3.3638 -0.9892 -1.5068
   89SAPC  C211 8441   7.052   3.827   5.885 -0.0497  0.7713  0.2554
   89SAPC  H11R 8442   6.987   3.841   5.797  2.9135  2.1109 -1.8722
   89SAPC  C212 8443   7.184   3.851   5.871 -0.0633  0.4501  0.1550
   89SAPC  H12R 8444   7.222   3.870   5.770  1.1996 -0.8988  0.3490
   89SAPC  C213 8445   7.295   3.844   5.977 -0.9474 -0.3825 -0.3000
   89SAPC  H13R 8446   7.250   3.854   6.078 -0.7053 -0.9914 -0.1240
   89SAPC  H13S 8447   7.364   3.931   5.972  0.7920 -1.7491 -1.4141
   89SAPC  C214 8448   7.379   3.723   5.956 -0.3926  0.2819 -0.4228
   89SAPC  H14R 8449   7.411   3.704   5.852  1.7065 -2.3747  0.5828
   89SAPC  C215 8450   7.448   3.662   6.051 -0.5321 -0.0299  0.0915
   89SAPC  H15R 8451   7.514   3.581   6.016 -1.0236  0.7968 -3.0086
   89SAPC  C216 8452   7.429   3.679   6.198  0.1472  0.5054 -0.1904
   89SAPC  H16R 8453   7.405   3.785   6.222 -1.4502  0.0837  0.1828
   89SAPC  H16S 8454   7.520   3.660   6.259  0.1711 -1.0223 -0.6858
   89SAPC  C217 8455   7.325   3.590   6.254  0.7249  0.3334 -0.2122
   89SAPC  H17R 8456   7.367   3.487   6.249  0.7208  0.3404 -0.4267
   89SAPC  H17S 8457   7.235   3.585   6.189 -0.4628 -0.2129  1.4127
   89SAPC  C218 8458   7.293   3.620   6.403  0.5167  0.6489  0.2291
   89SAPC  H18R 8459   7.395   3.623   6.447  1.9208 -2.3100 -2.4469
   89SAPC  H18S 8460   7.249   3.527   6.443  0.2304  2.0443  3.4503
   89SAPC  C219 8461   7.202   3.738   6.414  0.4003 -0.1318  0.1369
   89SAPC  H19R 8462   7.105   3.716   6.463  0.2884 -3.4864 -1.3115
   89SAPC  H19S 8463   7.185   3.778   6.311  0.4436  0.9828  0.5512
   89SAPC  C220 8464   7.273   3.843   6.511 -0.3350 -0.4949  0.5896
   89SAPC  H20R 8465   7.378   3.863   6.479 -0.7213 -0.2099 -0.5256
   89SAPC  H20S 8466   7.281   3.804   6.614  0.7552  1.1897  1.1886
   89SAPC  H20T 8467   7.215   3.938   6.516 -1.1118 -1.0149  1.7127
   89SAPC   C33 8468   6.599   3.308   6.325 -0.4672  1.0021  0.8727
   89SAPC   H3X 8469   6.562   3.203   6.328 -0.3621  0.9335 -0.0277
   89SAPC   H3Y 8470   6.708   3.300   6.346 -0.0961  0.2872 -1.1602
   89SAPC   C34 8471   6.568   3.371   6.191 -0.1352  0.1022 -0.6136
   89SAPC   H4X 8472   6.602   3.476   6.202  2.1859 -0.7294  1.1309
   89SAPC   H4Y 8473   6.460   3.372   6.169 -0.1960  2.3744 -0.4360
   89SAPC   C35 8474   6.636   3.287   6.079  0.0106 -0.9432 -0.2741
   89SAPC   H5X 8475   6.600   3.182   6.076 -0.8359 -0.7206  0.9813
   89SAPC   H5Y 8476   6.745   3.281   6.100  0.4334 -1.8881 -2.4293
   89SAPC   C36 8477   6.627   3.352   5.943 -0.3288 -0.6679 -0.4299
   89SAPC   H6X 8478   6.700   3.311   5.870  0.9240  0.8039 -0.0701
   89SAPC   H6Y 8479   6.653   3.458   5.961  0.4988 -0.4908 -2.4188
   89SAPC   C37 8480   6.493   3.337   5.878 -0.5382  0.0916 -0.0623
   89SAPC   H7X 8481   6.507   3.409   5.795 -0.7321  0.9823  0.6561
   89SAPC   H7Y 8482   6.416   3.371   5.951 -0.4410 -0.8351  0.4917
   89SAPC   C38 8483   6.464   3.201   5.819 -0.6304  0.0984  0.4902
   89SAPC   H8X 8484   6.361   3.205   5.779 -0.3905 -0.7968 -0.2437
   89SAPC   H8Y 8485   6.457   3.120   5.894 -0.0476  0.8841  1.4274
   89SAPC   C39 8486   6.552   3.153   5.700  0.1095 -0.7063  0.0069
   89SAPC   H9X 8487   6.658   3.156   5.734  1.1862 -0.3885 -3.0480
   89SAPC   H9Y 8488   6.546   3.237   5.626  0.2425 -0.6174  0.0972
   89SAPC  C310 8489   6.527   3.019   5.632  0.0846 -0.0956 -0.6802
   89SAPC  H10X 8490   6.564   2.938   5.699  1.1699  2.4955  2.0715
   89SAPC  H10Y 8491   6.577   3.012   5.533  0.8860  1.0735 -0.3839
   89SAPC  C311 8492   6.380   3.010   5.586 -0.1727 -0.5479 -0.7169
   89SAPC  H11X 8493   6.312   3.017   5.674  0.5044 -1.6953 -0.0739
   89SAPC  H11Y 8494   6.357   2.910   5.542 -0.5608  0.4973 -3.0052
   89SAPC  C312 8495   6.341   3.110   5.472 -0.5972 -0.1748  0.4818
   89SAPC  H12X 8496   6.389   3.206   5.501 -1.5057  0.1220  1.0159
   89SAPC  H12Y 8497   6.231   3.119   5.482 -0.5147  0.5759  0.7855
   89SAPC  C313 8498   6.398   3.061   5.336 -0.1240 -0.2101  0.5793
   89SAPC  H13X 8499   6.355   2.959   5.327  1.3163 -0.8619  0.9684
   89SAPC  H13Y 8500   6.508   3.049   5.338 -0.1129 -1.3139 -1.9599
   89SAPC  C314 8501   6.358   3.160   5.223  0.2105 -0.2788 -0.0179
   89SAPC  H14X 8502   6.274   3.224   5.258 -0.5099 -0.4547 -1.3590
   89SAPC  H14Y 8503   6.333   3.110   5.127 -1.3734  0.9373 -0.2720
   89SAPC  C315 8504   6.472   3.245   5.170  0.3808  0.3110 -0.2844
   89SAPC  H15X 8505   6.551   3.183   5.123  0.3972 -0.9593  1.3452
   89SAPC  H15Y 8506   6.517   3.292   5.260 -3.8497  0.5964  1.9557
   89SAPC  C316 8507   6.425   3.341   5.052 -0.2131  0.5480  0.4548
   89SAPC  H16X 8508   6.344   3.411   5.082 -0.7979  0.0698  0.0046
   89SAPC  H16Y 8509   6.371   3.288   4.971  0.4817  1.8740 -0.9192
   89SAPC  C317 8510   6.537   3.415   4.982  0.3224 -0.6642  0.9479
   89SAPC  H17X 8511   6.595   3.340   4.924  0.0061 -0.2019  0.0065
   89SAPC  H17Y 8512   6.613   3.451   5.055 -0.2017  1.9693  0.3067
   89SAPC  C318 8513   6.498   3.539   4.908  0.3835 -0.4129  0.4082
   89SAPC  H18X 8514   6.597   3.579   4.880  0.3656 -0.1586  0.7026
   89SAPC  H18Y 8515   6.435   3.610   4.965  0.4779 -0.5962  0.7484
   89SAPC  H18Z 8516   6.456   3.507   4.810  1.6580 -1.9278  0.3169
   90SAPC     N 8517   5.142   0.740   7.067  0.2837  0.4814  0.5742
   90SAPC   C12 8518   4.996   0.753   7.031  0.5199 -0.0223 -0.0073
   90SAPC  H12A 8519   4.944   0.815   7.102 -2.3387 -1.1888 -0.9555
   90SAPC  H12B 8520   4.949   0.659   7.054 -0.1188  0.7683  2.1456
   90SAPC   C13 8521   5.206   0.610   7.018  0.2561 -0.1463  0.3001
   90SAPC  H13A 8522   5.300   0.601   7.071 -0.4425 -2.5663  1.2509
   90SAPC  H13B 8523   5.147   0.527   7.052  0.7057  0.3999  2.5600
   90SAPC  H13C 8524   5.223   0.616   6.911  2.8801 -0.0366  0.6706
   90SAPC   C14 8525   5.222   0.855   7.010 -0.1629 -0.3674 -1.0352
   90SAPC  H14A 8526   5.189   0.862   6.908 -1.5314 -3.5753 -0.9285
   90SAPC  H14B 8527   5.197   0.948   7.059  0.2745  0.3770 -2.1671
   90SAPC  H14C 8528   5.328   0.837   7.007 -0.2043 -1.9207  2.3126
   90SAPC   C15 8529   5.154   0.733   7.213  0.0931  0.1095 -0.1333
   90SAPC  H15A 8530   5.089   0.662   7.263 -0.8924  1.7593  1.0304
   90SAPC  H15B 8531   5.256   0.718   7.247 -0.3348 -0.0638  1.1416
   90SAPC  H15C 8532   5.127   0.831   7.248 -1.8990 -0.6981  0.7637
   90SAPC   C11 8533   4.961   0.799   6.888  0.3811  0.0204  0.5441
   90SAPC  H11A 8534   4.996   0.903   6.868  1.9546 -1.0656 -3.2391
   90SAPC  H11B 8535   4.850   0.796   6.889  0.2162  2.9516  0.9540
   90SAPC     P 8536   5.097   0.748   6.668 -0.0408 -0.5341  0.3107
   90SAPC   O13 8537   5.191   0.851   6.716 -0.3331  0.3613  0.1314
   90SAPC   O14 8538   5.154   0.626   6.605  0.1817 -0.1578 -0.0938
   90SAPC   O12 8539   5.001   0.708   6.791  0.3498  0.1591 -0.4777
   90SAPC   O11 8540   4.998   0.809   6.560 -0.2014  0.2725 -0.1191
   90SAPC    C1 8541   4.870   0.744   6.557  0.1715  0.1175  0.0691
   90SAPC    HA 8542   4.867   0.643   6.603  0.9436  0.3415  0.6537
   90SAPC    HB 8543   4.799   0.804   6.619  0.0724  0.9841 -0.8663
   90SAPC    C2 8544   4.804   0.734   6.416  0.2254 -0.6141 -0.4015
   90SAPC    HS 8545   4.708   0.682   6.438  0.4507 -0.2376  1.6783
   90SAPC   O21 8546   4.878   0.675   6.312 -0.0932  0.7726  0.1496
   90SAPC   C21 8547   4.919   0.550   6.332 -0.8885  0.3405  0.5606
   90SAPC   O22 8548   4.879   0.476   6.421 -0.0465 -0.4304 -0.2476
   90SAPC   C22 8549   5.005   0.506   6.214 -0.3632  0.2793  0.2561
   90SAPC   H2R 8550   4.953   0.520   6.117  1.6033 -0.5313 -0.9992
   90SAPC   H2S 8551   5.093   0.573   6.220 -0.0928 -0.0493  0.0142
   90SAPC    C3 8552   4.770   0.877   6.364  0.1617 -0.4741  0.0658
   90SAPC    HX 8553   4.870   0.923   6.348 -0.5522  1.1127 -0.0659
   90SAPC    HY 8554   4.713   0.939   6.436  1.7746 -0.4693  1.4075
   90SAPC   O31 8555   4.686   0.853   6.246  0.1346  0.2557  0.5931
   90SAPC   C31 8556   4.703   0.956   6.150 -0.0956  0.2842  0.4236
   90SAPC   O32 8557   4.762   1.057   6.183 -0.1114 -0.1186  0.4886
   90SAPC   C32 8558   4.620   0.934   6.020 -0.2518  0.1044 -0.5394
   90SAPC   H2X 8559   4.546   1.017   6.020  0.2868  0.5913 -0.4535
   90SAPC   H2Y 8560   4.574   0.833   6.024 -0.9203  0.3787 -0.9873
   90SAPC   C23 8561   5.057   0.361   6.226  0.2933 -0.2003  0.0724
   90SAPC   H3R 8562   4.966   0.301   6.201 -0.4267  0.4254  1.1120
   90SAPC   H3S 8563   5.074   0.332   6.332 -1.8469  1.3992  0.9399
   90SAPC   C24 8564   5.170   0.331   6.130 -0.0147 -0.7109  0.5391
   90SAPC   H4R 8565   5.263   0.388   6.152 -0.7839  0.0845  1.8440
   90SAPC   H4S 8566   5.152   0.354   6.023  2.8308 -1.3608 -0.1665
   90SAPC   C25 8567   5.211   0.185   6.129 -0.1634 -0.0051  0.2458
   90SAPC   H5R 8568   5.267   0.156   6.219  0.5054 -3.1142 -1.0237
   90SAPC   C26 8569   5.202   0.092   6.032  0.2022 -0.9267 -0.2451
   90SAPC   H6R 8570   5.259  -0.002   6.040  0.8976 -0.5467 -0.6308
   90SAPC   C27 8571   5.135   0.118   5.899 -0.3017  0.2515 -0.1694
   90SAPC   H7R 8572   5.193   0.155   5.811 -0.6367 -3.6744 -2.2723
   90SAPC   H7S 8573   5.049   0.185   5.918 -0.9457 -1.1082  2.0612
   90SAPC   C28 8574   5.063  -0.012   5.863  0.4942  0.2408 -0.1248
   90SAPC   H8R 8575   5.022  -0.053   5.956 -1.9068  0.9137 -0.8200
   90SAPC   C29 8576   5.035  -0.072   5.747  0.0346 -0.5153 -0.2040
   90SAPC   H9R 8577   4.970  -0.161   5.743 -1.4103  0.4496  0.6826
   90SAPC  C210 8578   5.076  -0.019   5.617  0.4523 -0.1927  0.0874
   90SAPC  H10R 8579   5.090  -0.097   5.539 -4.6953 -0.4959 -0.8788
   90SAPC  H10S 8580   5.174   0.034   5.612  0.6296 -0.4252  0.9813
   90SAPC  C211 8581   4.966   0.076   5.560 -0.1260 -0.1543 -0.0489
   90SAPC  H11R 8582   4.942   0.168   5.615 -1.3499 -0.9340  0.7777
   90SAPC  C212 8583   4.907   0.061   5.441 -0.2578 -0.0422 -0.2496
   90SAPC  H12R 8584   4.833   0.138   5.414 -0.6669 -0.6132 -0.7856
   90SAPC  C213 8585   4.912  -0.055   5.346  0.0700  0.5551  0.4948
   90SAPC  H13R 8586   5.007  -0.113   5.341 -0.1857  0.0959  0.8252
   90SAPC  H13S 8587   4.919  -0.009   5.246  1.1213  1.0515  0.7814
   90SAPC  C214 8588   4.799  -0.154   5.346 -0.2381 -0.1255 -0.0420
   90SAPC  H14R 8589   4.710  -0.126   5.404 -1.0009  0.2599 -1.3612
   90SAPC  C215 8590   4.784  -0.263   5.265  0.1590  0.2024 -0.3064
   90SAPC  H15R 8591   4.690  -0.321   5.257  0.9547 -0.8782 -2.7654
   90SAPC  C216 8592   4.887  -0.301   5.164  0.1254  0.0473 -0.3668
   90SAPC  H16R 8593   4.957  -0.219   5.139  0.4981 -0.3052 -0.4789
   90SAPC  H16S 8594   4.828  -0.318   5.072 -2.9289 -0.6816  1.5554
   90SAPC  C217 8595   4.971  -0.429   5.181  0.5730 -0.5781 -0.4931
   90SAPC  H17R 8596   4.894  -0.509   5.170  1.2712 -1.3542  0.0551
   90SAPC  H17S 8597   5.010  -0.440   5.284  3.6217  1.0999 -1.3378
   90SAPC  C218 8598   5.090  -0.435   5.083 -0.0531 -0.2874 -0.5982
   90SAPC  H18R 8599   5.140  -0.338   5.063 -1.5266  0.6432 -0.0053
   90SAPC  H18S 8600   5.055  -0.461   4.981 -0.4614 -0.5727 -0.3922
   90SAPC  C219 8601   5.198  -0.525   5.138 -0.3550 -1.1214  0.3865
   90SAPC  H19R 8602   5.152  -0.620   5.172  0.2141 -0.9489  1.6929
   90SAPC  H19S 8603   5.235  -0.475   5.230  0.3785  1.5312 -1.2230
   90SAPC  C220 8604   5.312  -0.553   5.044  0.6073  0.6868  0.0349
   90SAPC  H20R 8605   5.282  -0.601   4.949  1.1620 -0.6996  0.5366
   90SAPC  H20S 8606   5.376  -0.622   5.103  0.7731  1.3841  0.6945
   90SAPC  H20T 8607   5.373  -0.462   5.028  1.1934  0.0023 -1.8338
   90SAPC   C33 8608   4.694   0.944   5.886 -0.3379  0.2864  0.4309
   90SAPC   H3X 8609   4.785   0.882   5.898  1.1541  2.8104  4.2740
   90SAPC   H3Y 8610   4.738   1.046   5.872  2.2883 -0.2104  3.6141
   90SAPC   C34 8611   4.613   0.914   5.760  0.9066  0.8799 -0.8319
   90SAPC   H4X 8612   4.504   0.936   5.770  0.3898 -1.3070 -1.0340
   90SAPC   H4Y 8613   4.605   0.803   5.759 -0.6144  0.9465  0.3806
   90SAPC   C35 8614   4.669   0.972   5.631 -0.6259 -0.1756  0.4044
   90SAPC   H5X 8615   4.651   1.082   5.625  2.1538  0.3011 -0.3524
   90SAPC   H5Y 8616   4.603   0.939   5.548  0.3546 -0.6811 -0.1794
   90SAPC   C36 8617   4.817   0.947   5.599  0.6250 -0.2084 -0.2164
   90SAPC   H6X 8618   4.821   0.836   5.589  0.3428 -0.1424 -1.1899
   90SAPC   H6Y 8619   4.886   0.989   5.675 -0.0129 -0.1108  0.3159
   90SAPC   C37 8620   4.864   1.012   5.472  0.6802 -0.4959 -0.1269
   90SAPC   H7X 8621   4.844   1.121   5.481 -0.1945 -0.3739 -2.6274
   90SAPC   H7Y 8622   4.803   0.982   5.384 -0.3021  2.2976 -0.4750
   90SAPC   C38 8623   5.016   0.991   5.453  0.3043 -0.4987 -0.0523
   90SAPC   H8X 8624   5.034   0.883   5.438  3.2517 -0.1688  0.4796
   90SAPC   H8Y 8625   5.069   1.018   5.547 -2.1713 -1.2162  1.6560
   90SAPC   C39 8626   5.067   1.062   5.328  0.5798  0.1638 -0.4191
   90SAPC   H9X 8627   5.020   1.012   5.241 -0.4966 -0.4145  0.4867
   90SAPC   H9Y 8628   5.176   1.037   5.330  1.2469  2.6942  1.8960
   90SAPC  C310 8629   5.049   1.218   5.331  0.2758  1.3186  0.2301
   90SAPC  H10X 8630   5.111   1.257   5.415  0.2450  1.6052  0.1201
   90SAPC  H10Y 8631   4.946   1.256   5.347 -0.3675 -0.4961  0.5683
   90SAPC  C311 8632   5.096   1.288   5.200 -0.1645  0.5055  0.1720
   90SAPC  H11X 8633   5.042   1.246   5.112  0.4723 -0.4096  0.2028
   90SAPC  H11Y 8634   5.204   1.270   5.182 -0.1571  0.1328  0.5917
   90SAPC  C312 8635   5.063   1.439   5.196 -0.2909  0.2487  0.1008
   90SAPC  H12X 8636   5.102   1.504   5.277  0.2000  1.2543 -0.9167
   90SAPC  H12Y 8637   4.952   1.438   5.193 -0.2801 -0.4600 -0.1978
   90SAPC  C313 8638   5.085   1.493   5.057  0.4752  0.1056 -0.3596
   90SAPC  H13X 8639   5.004   1.570   5.047 -0.7164 -0.9917  0.4569
   90SAPC  H13Y 8640   5.065   1.415   4.980  0.2422 -1.3357  1.1222
   90SAPC  C314 8641   5.220   1.551   5.022  0.0061 -0.3499 -0.4185
   90SAPC  H14X 8642   5.299   1.476   5.046  1.3796  0.7686 -1.2979
   90SAPC  H14Y 8643   5.238   1.639   5.088 -0.2926 -0.1722 -0.5702
   90SAPC  C315 8644   5.223   1.604   4.879  0.1713  0.5915  0.3038
   90SAPC  H15X 8645   5.131   1.664   4.860  1.7277  3.4140  1.1342
   90SAPC  H15Y 8646   5.208   1.520   4.807 -0.7001  0.7690  0.2604
   90SAPC  C316 8647   5.342   1.692   4.848  0.0652 -0.0858 -0.2475
   90SAPC  H16X 8648   5.430   1.624   4.858  1.2022  1.0265 -2.0630
   90SAPC  H16Y 8649   5.341   1.784   4.911  1.5993 -0.0903 -0.1598
   90SAPC  C317 8650   5.340   1.736   4.699 -0.0104  0.3416 -0.3330
   90SAPC  H17X 8651   5.245   1.781   4.663  0.7209  1.4008 -1.0214
   90SAPC  H17Y 8652   5.341   1.644   4.637 -1.4492  0.5979 -0.7716
   90SAPC  C318 8653   5.456   1.826   4.658 -0.6366  0.2880 -0.2777
   90SAPC  H18X 8654   5.549   1.791   4.709 -1.0655 -1.3561 -0.5449
   90SAPC  H18Y 8655   5.440   1.926   4.704 -1.7445 -0.8898  2.0823
   90SAPC  H18Z 8656   5.475   1.834   4.549 -1.0411  0.4155 -0.3398
   91SAPC     N 8657   1.460   1.977   7.333  0.9752 -0.3776  0.6109
   91SAPC   C12 8658   1.528   1.943   7.201 -0.2399  0.5197  0.3485
   91SAPC  H12A 8659   1.617   2.000   7.180 -0.2530  0.8238  1.0877
   91SAPC  H12B 8660   1.461   1.968   7.121  0.6264 -1.4649 -1.0679
   91SAPC   C13 8661   1.431   2.123   7.330 -0.0986 -0.7283 -0.5480
   91SAPC  H13A 8662   1.529   2.167   7.323  0.5056 -1.2348  2.9269
   91SAPC  H13B 8663   1.374   2.138   7.239  0.4230 -0.9838 -0.9197
   91SAPC  H13C 8664   1.389   2.159   7.423  1.6998 -1.4194  0.5778
   91SAPC   C14 8665   1.330   1.902   7.330  0.1486 -0.4330  0.6112
   91SAPC  H14A 8666   1.276   1.937   7.417 -1.4004  1.0271 -0.8577
   91SAPC  H14B 8667   1.271   1.931   7.244  0.3055 -0.7590  0.3916
   91SAPC  H14C 8668   1.334   1.794   7.339  0.7484 -0.5830 -1.0798
   91SAPC   C15 8669   1.549   1.942   7.446  0.4969  0.0666 -0.0437
   91SAPC  H15A 8670   1.584   1.840   7.449  3.4723  1.0305  2.5571
   91SAPC  H15B 8671   1.646   1.985   7.427  1.4768 -1.5229  1.1885
   91SAPC  H15C 8672   1.506   1.976   7.539  0.0121 -0.4159 -0.0877
   91SAPC   C11 8673   1.569   1.793   7.163  0.3853  0.0761  0.2370
   91SAPC  H11A 8674   1.594   1.805   7.055 -3.5073  2.6001 -0.5899
   91SAPC  H11B 8675   1.481   1.727   7.172  0.9799 -0.4957  2.2462
   91SAPC     P 8676   1.819   1.786   7.217  0.1637 -0.1951 -0.5694
   91SAPC   O13 8677   1.825   1.928   7.250  0.3725 -0.1701 -0.2126
   91SAPC   O14 8678   1.909   1.701   7.297 -0.1440 -0.2500  0.5731
   91SAPC   O12 8679   1.668   1.734   7.241 -0.7151 -0.2068 -0.1346
   91SAPC   O11 8680   1.856   1.765   7.063 -0.3030  0.8580  0.1371
   91SAPC    C1 8681   1.986   1.811   7.017  0.1180  0.7563  0.8430
   91SAPC    HA 8682   2.022   1.892   7.084 -1.7716  2.5730 -0.2328
   91SAPC    HB 8683   2.057   1.726   7.006  1.0207  1.7302 -1.5244
   91SAPC    C2 8684   1.971   1.875   6.872 -0.8566 -0.2001 -0.0668
   91SAPC    HS 8685   1.918   1.971   6.892  1.6809  0.7155  3.1260
   91SAPC   O21 8686   1.908   1.778   6.789  0.4808  0.4271 -0.4674
   91SAPC   C21 8687   1.803   1.817   6.720  0.2664 -0.3285 -1.1756
   91SAPC   O22 8688   1.763   1.932   6.724 -0.3007  0.4670  0.5893
   91SAPC   C22 8689   1.747   1.701   6.632  0.6261 -0.0572  0.8951
   91SAPC   H2R 8690   1.781   1.600   6.662  0.9486 -0.6073 -1.1473
   91SAPC   H2S 8691   1.636   1.705   6.638  0.6177  1.0084  0.2823
   91SAPC    C3 8692   2.117   1.910   6.822 -0.1572  0.4489 -0.3788
   91SAPC    HX 8693   2.187   1.824   6.826 -0.8680 -0.1103  0.2024
   91SAPC    HY 8694   2.161   1.977   6.899 -1.6533  2.1865 -0.9666
   91SAPC   O31 8695   2.123   1.967   6.691  0.1219  0.3113 -0.1262
   91SAPC   C31 8696   2.096   2.097   6.679  0.0394 -0.2667 -0.3588
   91SAPC   O32 8697   2.065   2.166   6.773  0.0153 -0.4105  0.4779
   91SAPC   C32 8698   2.116   2.136   6.530  0.2777 -0.0714  0.1620
   91SAPC   H2X 8699   2.087   2.047   6.469 -1.4348 -0.8574  2.0115
   91SAPC   H2Y 8700   2.221   2.161   6.504  0.9046 -1.4377  1.2660
   91SAPC   C23 8701   1.784   1.721   6.482 -0.8739 -0.4783 -0.0265
   91SAPC   H3R 8702   1.757   1.821   6.443 -0.6043 -0.5381 -0.3709
   91SAPC   H3S 8703   1.715   1.658   6.422 -0.3004 -0.9466 -0.2081
   91SAPC   C24 8704   1.925   1.682   6.447 -0.3510  0.5236 -0.0381
   91SAPC   H4R 8705   1.922   1.577   6.411  2.8448  0.3018  0.0463
   91SAPC   H4S 8706   1.981   1.677   6.542  1.3155  0.6263 -0.9771
   91SAPC   C25 8707   1.988   1.764   6.333  0.1246 -0.2091 -0.0828
   91SAPC   H5R 8708   2.049   1.850   6.366 -0.9104  1.3708 -2.0687
   91SAPC   C26 8709   1.992   1.738   6.202  0.4371 -0.2213  0.5622
   91SAPC   H6R 8710   2.062   1.801   6.146 -0.6034 -1.0336 -1.8262
   91SAPC   C27 8711   1.909   1.647   6.122  0.0643  0.2719  0.1023
   91SAPC   H7R 8712   1.832   1.594   6.182 -0.2527 -1.9454 -2.0762
   91SAPC   H7S 8713   1.985   1.571   6.093 -0.6333 -0.3989 -0.0015
   91SAPC   C28 8714   1.832   1.717   6.004 -0.1703  0.3839 -0.4965
   91SAPC   H8R 8715   1.736   1.761   6.033 -0.4888  0.4904 -1.6809
   91SAPC   C29 8716   1.853   1.690   5.872 -0.0904  0.5652 -0.0588
   91SAPC   H9R 8717   1.790   1.749   5.803  0.0338  1.1288  0.3052
   91SAPC  C210 8718   1.965   1.624   5.802 -0.4773  0.4126  0.1686
   91SAPC  H10R 8719   1.929   1.558   5.720 -0.1782  1.0845 -0.5162
   91SAPC  H10S 8720   2.025   1.550   5.861  1.0633  0.2240 -1.5509
   91SAPC  C211 8721   2.058   1.734   5.752  0.2711 -0.7242  0.4662
   91SAPC  H11R 8722   2.126   1.767   5.832  1.1200  0.6370 -0.7825
   91SAPC  C212 8723   2.058   1.788   5.628  0.1084  0.0966  0.4662
   91SAPC  H12R 8724   2.131   1.867   5.604  0.5145 -0.7786 -1.3264
   91SAPC  C213 8725   1.960   1.760   5.515 -0.5590  0.0127 -0.6778
   91SAPC  H13R 8726   1.914   1.855   5.480 -2.1875 -1.3180 -2.3773
   91SAPC  H13S 8727   1.868   1.713   5.556 -0.8858  1.3413  0.1741
   91SAPC  C214 8728   2.015   1.683   5.396  0.6197  0.4400 -0.8552
   91SAPC  H14R 8729   2.090   1.606   5.421  0.8163  0.4042 -1.5409
   91SAPC  C215 8730   1.979   1.708   5.269  0.3287  0.2547  0.1611
   91SAPC  H15R 8731   2.021   1.652   5.184 -1.1370  0.4756 -0.7374
   91SAPC  C216 8732   1.869   1.808   5.228  0.4130  0.2450 -0.4018
   91SAPC  H16R 8733   1.832   1.853   5.323 -1.2700 -5.2063  1.9277
   91SAPC  H16S 8734   1.797   1.734   5.188  0.9285  0.1122 -1.0828
   91SAPC  C217 8735   1.900   1.906   5.108  0.0136 -0.1573  0.2586
   91SAPC  H17R 8736   1.905   1.837   5.021 -3.4723  2.0725 -1.9488
   91SAPC  H17S 8737   1.990   1.965   5.135 -0.8903  0.3847  2.2580
   91SAPC  C218 8738   1.789   2.006   5.074  0.8742  0.6117 -0.4398
   91SAPC  H18R 8739   1.784   2.075   5.161 -1.7750  1.0249 -0.8269
   91SAPC  H18S 8740   1.698   1.941   5.070  0.2836  1.4066 -0.1348
   91SAPC  C219 8741   1.795   2.087   4.944 -0.0905  0.0135  0.3275
   91SAPC  H19R 8742   1.887   2.150   4.937 -0.7852  1.0482  0.2880
   91SAPC  H19S 8743   1.710   2.159   4.947 -0.2019 -0.1367  1.4785
   91SAPC  C220 8744   1.784   2.000   4.817  0.4993  0.2120 -0.4727
   91SAPC  H20R 8745   1.868   1.928   4.808  0.3115  0.0425 -0.8892
   91SAPC  H20S 8746   1.776   2.061   4.724  1.7874 -0.0784 -0.8019
   91SAPC  H20T 8747   1.691   1.940   4.824  0.4547 -0.0118 -2.4125
   91SAPC   C33 8748   2.025   2.257   6.489 -0.0988 -0.6343  0.3546
   91SAPC   H3X 8749   2.086   2.349   6.500 -0.4904  0.0176 -2.2674
   91SAPC   H3Y 8750   1.927   2.255   6.542 -0.8199  1.4184 -0.7831
   91SAPC   C34 8751   1.972   2.247   6.346  0.7803  0.0439 -0.2080
   91SAPC   H4X 8752   1.875   2.195   6.332  0.9095  0.4961 -3.9173
   91SAPC   H4Y 8753   2.041   2.173   6.300  1.9907  0.7524  0.4303
   91SAPC   C35 8754   1.960   2.376   6.268  0.1920 -0.2999  1.0534
   91SAPC   H5X 8755   2.055   2.432   6.256  0.2039 -0.5972 -0.4750
   91SAPC   H5Y 8756   1.890   2.443   6.321 -0.2939  0.2569 -0.2456
   91SAPC   C36 8757   1.900   2.354   6.121 -0.4987 -0.2742 -0.6167
   91SAPC   H6X 8758   1.811   2.289   6.121 -0.9406  0.3012  0.6523
   91SAPC   H6Y 8759   1.973   2.298   6.058 -0.1101 -1.9386  1.1914
   91SAPC   C37 8760   1.859   2.480   6.043 -0.4870 -0.8188 -0.3175
   91SAPC   H7X 8761   1.951   2.541   6.025  0.1288 -1.1082  1.6148
   91SAPC   H7Y 8762   1.806   2.549   6.112  1.6526  2.4734 -1.7371
   91SAPC   C38 8763   1.780   2.454   5.907 -0.3587  0.1931 -0.1693
   91SAPC   H8X 8764   1.685   2.399   5.925  0.5355 -0.9143  1.3635
   91SAPC   H8Y 8765   1.860   2.404   5.850  1.1908 -0.3485  2.3274
   91SAPC   C39 8766   1.738   2.589   5.846 -0.3438 -0.5927  0.4953
   91SAPC   H9X 8767   1.818   2.663   5.866 -1.3009  0.1956  1.4586
   91SAPC   H9Y 8768   1.648   2.636   5.892  1.4489 -0.0776  3.7445
   91SAPC  C310 8769   1.718   2.578   5.690  0.2163  0.3632  0.4625
   91SAPC  H10X 8770   1.668   2.482   5.666  3.7315 -2.2220  2.4548
   91SAPC  H10Y 8771   1.822   2.556   5.656  0.6269 -0.5577  2.1964
   91SAPC  C311 8772   1.646   2.709   5.634  0.0827  0.7646  0.1905
   91SAPC  H11X 8773   1.671   2.792   5.704  0.2164  0.7493  0.1613
   91SAPC  H11Y 8774   1.536   2.697   5.636  0.1215  0.3715  0.0507
   91SAPC  C312 8775   1.706   2.750   5.497  0.1315  0.0938  0.3439
   91SAPC  H12X 8776   1.714   2.658   5.435  2.2222  0.5080 -0.0627
   91SAPC  H12Y 8777   1.810   2.784   5.514  0.8237 -1.6015 -0.3003
   91SAPC  C313 8778   1.613   2.853   5.428  0.4580  0.2207  0.6626
   91SAPC  H13X 8779   1.599   2.941   5.495 -2.5293  1.1600 -0.9978
   91SAPC  H13Y 8780   1.508   2.817   5.421  0.2482  0.5598  1.8275
   91SAPC  C314 8781   1.661   2.899   5.289  0.5824 -0.4010 -0.4119
   91SAPC  H14X 8782   1.700   2.818   5.223  2.1461 -1.5528  1.8076
   91SAPC  H14Y 8783   1.755   2.957   5.295 -0.7528  1.8283  0.0975
   91SAPC  C315 8784   1.565   2.991   5.204  0.0627  0.2039 -0.3678
   91SAPC  H15X 8785   1.585   3.092   5.245 -0.3692 -0.5598  1.8783
   91SAPC  H15Y 8786   1.465   2.955   5.236  0.4161 -0.0102  0.5168
   91SAPC  C316 8787   1.565   2.975   5.048  0.7757 -0.1642 -0.1930
   91SAPC  H16X 8788   1.658   3.025   5.011  0.6351  1.1413  1.1403
   91SAPC  H16Y 8789   1.478   3.038   5.022  1.3638 -0.2024 -2.5438
   91SAPC  C317 8790   1.544   2.843   4.971  0.0781  0.4993 -0.3104
   91SAPC  H17X 8791   1.632   2.781   5.000  2.5342  3.9764  0.3467
   91SAPC  H17Y 8792   1.564   2.867   4.865 -0.9441  1.2857 -0.3397
   91SAPC  C318 8793   1.404   2.775   4.987 -0.3247  0.3352  0.0435
   91SAPC  H18X 8794   1.395   2.715   5.080 -0.1975 -1.8807 -1.2735
   91SAPC  H18Y 8795   1.385   2.712   4.897  2.5511  1.3295 -1.3692
   91SAPC  H18Z 8796   1.327   2.855   4.992  1.1677  2.1579 -3.1842
   92SAPC     N 8797   1.691   4.755   7.264  0.8309 -0.0014  0.0123
   92SAPC   C12 8798   1.640   4.824   7.139  0.5589 -0.0498  0.9453
   92SAPC  H12A 8799   1.626   4.930   7.153  0.9744  0.5401 -2.3913
   92SAPC  H12B 8800   1.540   4.788   7.119  0.7712 -0.8858  1.3324
   92SAPC   C13 8801   1.586   4.760   7.371 -0.4018  0.1218 -0.8833
   92SAPC  H13A 8802   1.494   4.708   7.348 -0.7959  0.5339 -0.2750
   92SAPC  H13B 8803   1.619   4.714   7.463  0.0757 -0.0252 -1.1223
   92SAPC  H13C 8804   1.577   4.861   7.410  1.5702  0.4098 -1.0843
   92SAPC   C14 8805   1.727   4.611   7.225  0.4853  0.2553 -0.4115
   92SAPC  H14A 8806   1.643   4.554   7.186  1.2601  0.2619 -2.2072
   92SAPC  H14B 8807   1.806   4.600   7.152  1.0178 -1.3539  0.3606
   92SAPC  H14C 8808   1.751   4.560   7.317 -1.1033  0.1590 -0.0252
   92SAPC   C15 8809   1.809   4.819   7.318 -0.6854  0.1155  0.7121
   92SAPC  H15A 8810   1.892   4.809   7.250 -1.7328  0.0400 -0.5988
   92SAPC  H15B 8811   1.794   4.924   7.339 -1.0580 -0.0913  1.5164
   92SAPC  H15C 8812   1.846   4.778   7.411  0.7126  0.7452  0.4642
   92SAPC   C11 8813   1.724   4.806   7.003  0.2065 -0.1740  0.4796
   92SAPC  H11A 8814   1.649   4.841   6.929  1.3924 -1.7629 -1.5993
   92SAPC  H11B 8815   1.754   4.701   6.982  3.2707  0.7327 -0.1050
   92SAPC     P 8816   1.829   5.034   6.946 -0.0848  0.2838 -0.2882
   92SAPC   O13 8817   1.691   5.089   6.956 -0.7746  0.4309 -0.1630
   92SAPC   O14 8818   1.936   5.115   7.004 -0.1578  0.1674  0.1959
   92SAPC   O12 8819   1.840   4.893   7.017 -0.7120  0.5420  1.2713
   92SAPC   O11 8820   1.858   5.009   6.792  0.5563 -0.2372 -0.4713
   92SAPC    C1 8821   1.963   4.933   6.742 -1.0203  0.0457 -0.2009
   92SAPC    HA 8822   1.970   4.838   6.798  2.0326 -0.0152 -0.5535
   92SAPC    HB 8823   1.939   4.909   6.636  2.6985  1.9602 -1.6521
   92SAPC    C2 8824   2.098   5.006   6.728 -0.7037 -0.7528  0.3624
   92SAPC    HS 8825   2.109   5.045   6.831 -0.2329 -1.6628  0.6586
   92SAPC   O21 8826   2.083   5.122   6.643  0.2023  0.2852 -0.6000
   92SAPC   C21 8827   2.178   5.205   6.651  0.1512  0.1558 -0.2162
   92SAPC   O22 8828   2.283   5.207   6.722  0.8411 -0.7593 -0.2246
   92SAPC   C22 8829   2.144   5.308   6.541  0.9520 -0.4563 -0.2794
   92SAPC   H2R 8830   2.066   5.266   6.474 -0.3368  2.3028 -0.6679
   92SAPC   H2S 8831   2.097   5.397   6.588 -0.9131 -1.2910 -0.4448
   92SAPC    C3 8832   2.218   4.916   6.694  0.3971  0.0645 -0.3541
   92SAPC    HX 8833   2.213   4.831   6.765 -0.2111  1.4270  1.3128
   92SAPC    HY 8834   2.309   4.966   6.732  1.5141 -5.2121  5.4515
   92SAPC   O31 8835   2.204   4.858   6.566 -0.0548 -0.2030 -0.1912
   92SAPC   C31 8836   2.288   4.900   6.471  0.2706 -0.4446  0.5517
   92SAPC   O32 8837   2.380   4.979   6.482 -0.1001 -0.3619  0.5118
   92SAPC   C32 8838   2.245   4.846   6.333  0.4257  0.4167 -0.2897
   92SAPC   H2X 8839   2.134   4.853   6.339  0.2912 -1.6741  0.2733
   92SAPC   H2Y 8840   2.275   4.739   6.331  0.0058  0.2740  0.4769
   92SAPC   C23 8841   2.268   5.343   6.450 -0.6357  0.8163 -0.2150
   92SAPC   H3R 8842   2.311   5.248   6.413 -1.1011 -0.3689  2.1110
   92SAPC   H3S 8843   2.350   5.395   6.504 -0.4516 -0.0296  0.3400
   92SAPC   C24 8844   2.222   5.435   6.333 -0.2275 -0.3836  0.0775
   92SAPC   H4R 8845   2.156   5.516   6.370 -0.2672 -0.7847  0.9121
   92SAPC   H4S 8846   2.163   5.381   6.256 -2.8711 -0.3473  1.9333
   92SAPC   C25 8847   2.345   5.488   6.268 -0.5535  0.2141  0.1485
   92SAPC   H5R 8848   2.401   5.552   6.337  1.1330 -0.5803 -0.4063
   92SAPC   C26 8849   2.391   5.485   6.141 -0.4166 -0.0404 -0.3688
   92SAPC   H6R 8850   2.487   5.536   6.124  0.8828 -2.1186  0.4136
   92SAPC   C27 8851   2.335   5.415   6.021 -0.2871  0.1500 -0.0225
   92SAPC   H7R 8852   2.331   5.484   5.934  1.2754  0.3379  0.0200
   92SAPC   H7S 8853   2.227   5.392   6.036 -0.4923 -1.3073 -2.9870
   92SAPC   C28 8854   2.399   5.292   5.975 -0.0891  0.5056  0.2224
   92SAPC   H8R 8855   2.409   5.217   6.054 -0.3453 -0.4544 -0.6270
   92SAPC   C29 8856   2.446   5.255   5.854 -0.0747 -0.3296  0.4013
   92SAPC   H9R 8857   2.483   5.152   5.843  3.3954  0.9825 -1.7803
   92SAPC  C210 8858   2.470   5.338   5.725 -0.0068 -0.3064 -0.4686
   92SAPC  H10R 8859   2.495   5.439   5.765  0.9679 -0.8334  0.3046
   92SAPC  H10S 8860   2.375   5.358   5.672  0.0576 -2.0014 -1.2899
   92SAPC  C211 8861   2.581   5.283   5.641 -1.2069  0.0757  0.2747
   92SAPC  H11R 8862   2.653   5.224   5.700 -0.7998  0.7127  0.4262
   92SAPC  C212 8863   2.595   5.308   5.511 -0.3239  0.1056  0.0627
   92SAPC  H12R 8864   2.684   5.268   5.459 -1.2448 -1.6856 -0.1976
   92SAPC  C213 8865   2.508   5.397   5.432  0.2313 -0.6163  0.0583
   92SAPC  H13R 8866   2.575   5.458   5.367  1.9272  0.7637  2.9028
   92SAPC  H13S 8867   2.459   5.473   5.496  1.4196 -0.0057  0.2910
   92SAPC  C214 8868   2.404   5.326   5.353 -0.0242  0.5438 -0.1580
   92SAPC  H14R 8869   2.309   5.330   5.409  0.6441  0.6509  1.0113
   92SAPC  C215 8870   2.415   5.280   5.231 -0.9120 -0.4089 -0.5427
   92SAPC  H15R 8871   2.324   5.235   5.188 -2.1233  2.3553 -1.1301
   92SAPC  C216 8872   2.537   5.282   5.129  0.6169  0.0810  0.0494
   92SAPC  H16R 8873   2.569   5.178   5.105 -2.4546 -1.6750  2.6679
   92SAPC  H16S 8874   2.613   5.332   5.193  0.0655 -0.4636  1.1690
   92SAPC  C217 8875   2.512   5.369   5.007  0.6181  0.1268 -0.3512
   92SAPC  H17R 8876   2.606   5.381   4.950  0.0614 -0.7153 -1.4940
   92SAPC  H17S 8877   2.485   5.469   5.048 -2.0095 -0.1611 -1.1337
   92SAPC  C218 8878   2.405   5.317   4.912 -0.4111  0.9719  0.3196
   92SAPC  H18R 8879   2.314   5.277   4.961 -0.8307  2.8214  1.1627
   92SAPC  H18S 8880   2.457   5.240   4.852  0.1209  2.2074 -0.8318
   92SAPC  C219 8881   2.359   5.415   4.804 -0.2189  0.0907  0.1149
   92SAPC  H19R 8882   2.456   5.461   4.777 -0.0387  0.4866  1.3872
   92SAPC  H19S 8883   2.294   5.496   4.844  2.0550  1.4132  1.3096
   92SAPC  C220 8884   2.286   5.356   4.689  0.5090  0.1932 -0.0177
   92SAPC  H20R 8885   2.344   5.277   4.635 -0.2806  0.1351 -0.7972
   92SAPC  H20S 8886   2.245   5.435   4.623 -0.5863  1.1838  1.7843
   92SAPC  H20T 8887   2.195   5.298   4.715 -0.2231  1.0141 -0.7298
   92SAPC   C33 8888   2.292   4.917   6.202  0.3491  0.1844  0.0216
   92SAPC   H3X 8889   2.402   4.923   6.212  0.5906 -3.3294  0.7044
   92SAPC   H3Y 8890   2.250   5.019   6.190  0.8246  0.2885 -0.8254
   92SAPC   C34 8891   2.259   4.836   6.075 -0.1044 -0.0088  0.0861
   92SAPC   H4X 8892   2.152   4.806   6.072 -1.0081  2.3667  3.2456
   92SAPC   H4Y 8893   2.329   4.750   6.075  1.5307  1.2681  0.7521
   92SAPC   C35 8894   2.290   4.915   5.949  0.2990 -0.2051  0.1907
   92SAPC   H5X 8895   2.386   4.968   5.967 -0.2154  1.1136 -0.8555
   92SAPC   H5Y 8896   2.219   4.998   5.928  0.4684 -0.7767 -3.2334
   92SAPC   C36 8897   2.294   4.834   5.820  0.5255 -0.0349 -0.0469
   92SAPC   H6X 8898   2.215   4.757   5.811  1.1435 -0.9760  2.0369
   92SAPC   H6Y 8899   2.390   4.777   5.818  0.8652  0.3420  2.1895
   92SAPC   C37 8900   2.310   4.924   5.707  0.2250 -0.2460  0.0393
   92SAPC   H7X 8901   2.408   4.976   5.720 -0.4405  0.3966  3.1223
   92SAPC   H7Y 8902   2.231   5.000   5.692  0.3667 -0.0617  0.2132
   92SAPC   C38 8903   2.313   4.852   5.574  0.0527  0.1077  0.6801
   92SAPC   H8X 8904   2.227   4.784   5.554  1.2745 -1.1554 -0.5411
   92SAPC   H8Y 8905   2.398   4.781   5.584 -0.1197 -0.1453  0.3740
   92SAPC   C39 8906   2.342   4.946   5.450 -0.1646  0.2247 -0.4043
   92SAPC   H9X 8907   2.443   4.987   5.471  0.1698 -1.4490  1.5153
   92SAPC   H9Y 8908   2.268   5.029   5.454 -0.5098 -0.1161  0.6138
   92SAPC  C310 8909   2.353   4.853   5.320  0.7367 -0.4118  0.0921
   92SAPC  H10X 8910   2.255   4.802   5.307 -0.4639  1.5943  0.7253
   92SAPC  H10Y 8911   2.441   4.786   5.323  1.1294  0.0831 -0.1587
   92SAPC  C311 8912   2.371   4.952   5.194  0.3918  0.9412 -0.6930
   92SAPC  H11X 8913   2.461   5.011   5.218  2.1210 -2.0107  0.6784
   92SAPC  H11Y 8914   2.271   5.002   5.189 -0.1751 -0.1992 -1.3043
   92SAPC  C312 8915   2.405   4.884   5.061 -0.3660  0.3043  0.1154
   92SAPC  H12X 8916   2.498   4.827   5.082 -0.2557  0.9130  1.3718
   92SAPC  H12Y 8917   2.435   4.959   4.984  1.5081 -0.3424  0.1451
   92SAPC  C313 8918   2.298   4.778   5.021  0.1485  0.1388  0.1933
   92SAPC  H13X 8919   2.198   4.823   5.008  1.4311  2.7690 -1.4823
   92SAPC  H13Y 8920   2.303   4.698   5.098  1.4043  1.4807  1.5908
   92SAPC  C314 8921   2.313   4.704   4.883  0.1512 -0.5280  0.0724
   92SAPC  H14X 8922   2.344   4.777   4.805  0.7126 -0.5434  0.2713
   92SAPC  H14Y 8923   2.209   4.681   4.851 -0.7343 -0.8985  2.9690
   92SAPC  C315 8924   2.391   4.577   4.880  0.1652  0.4531  0.4007
   92SAPC  H15X 8925   2.361   4.503   4.958 -0.5321 -0.1749 -0.4460
   92SAPC  H15Y 8926   2.495   4.610   4.899  0.3692  0.8253 -1.2655
   92SAPC  C316 8927   2.387   4.502   4.740  0.4835 -0.0710 -0.7611
   92SAPC  H16X 8928   2.431   4.567   4.661 -0.3235 -1.4694 -2.4316
   92SAPC  H16Y 8929   2.278   4.494   4.718  0.6583 -0.5269 -1.5092
   92SAPC  C317 8930   2.452   4.361   4.747 -0.0240 -0.0120 -0.3972
   92SAPC  H17X 8931   2.414   4.311   4.838  0.4474  1.2813  0.5349
   92SAPC  H17Y 8932   2.561   4.381   4.753  0.0130 -0.3268  0.0270
   92SAPC  C318 8933   2.426   4.278   4.625  0.7369  0.0278  0.7616
   92SAPC  H18X 8934   2.318   4.286   4.598  1.0057 -1.6539 -1.0112
   92SAPC  H18Y 8935   2.439   4.172   4.654  0.1623 -0.5131 -0.8484
   92SAPC  H18Z 8936   2.492   4.296   4.538  0.1807 -0.8712  0.1352
   93SAPC     N 8937   2.237   0.232   7.153 -0.6607  0.4699  0.1680
   93SAPC   C12 8938   2.316   0.333   7.067 -0.2798  0.2599  0.9914
   93SAPC  H12A 8939   2.254   0.366   6.985 -1.8770 -0.2294  1.9761
   93SAPC  H12B 8940   2.396   0.281   7.016 -1.2871  0.7160 -1.1586
   93SAPC   C13 8941   2.169   0.142   7.057  0.3934  0.0657  0.4365
   93SAPC  H13A 8942   2.099   0.090   7.121  2.3923 -1.1345  1.7562
   93SAPC  H13B 8943   2.120   0.195   6.977  1.1446 -0.6211 -0.4871
   93SAPC  H13C 8944   2.228   0.064   7.012  0.7486  0.7752 -0.3636
   93SAPC   C14 8945   2.329   0.158   7.246  0.4203  0.6278 -0.5046
   93SAPC  H14A 8946   2.281   0.064   7.270  2.4169 -0.3523 -0.1291
   93SAPC  H14B 8947   2.420   0.123   7.199  0.4032  0.6747 -0.5715
   93SAPC  H14C 8948   2.350   0.210   7.338 -1.3284 -0.6693  0.7019
   93SAPC   C15 8949   2.137   0.306   7.235 -0.2187  0.1095  0.1642
   93SAPC  H15A 8950   2.183   0.370   7.309 -0.7405  0.1648  0.4401
   93SAPC  H15B 8951   2.079   0.370   7.170 -0.5024  1.4096  1.6269
   93SAPC  H15C 8952   2.074   0.241   7.293  2.0392  0.2689  3.0004
   93SAPC   C11 8953   2.381   0.461   7.136  0.7764  0.1942 -0.1107
   93SAPC  H11A 8954   2.311   0.536   7.177  0.7913  0.1106  0.0693
   93SAPC  H11B 8955   2.432   0.510   7.050  0.4211 -3.2040 -2.4776
   93SAPC     P 8956   2.619   0.385   7.206 -0.1804 -0.0036  0.2076
   93SAPC   O13 8957   2.710   0.487   7.252  0.5427 -0.6230 -0.0428
   93SAPC   O14 8958   2.647   0.246   7.241  0.3319  0.3448  0.5259
   93SAPC   O12 8959   2.470   0.422   7.234  0.6721  0.1641  0.5496
   93SAPC   O11 8960   2.635   0.389   7.049 -0.2987 -0.8334 -0.3071
   93SAPC    C1 8961   2.762   0.436   6.993 -0.0250  0.2274  0.0909
   93SAPC    HA 8962   2.805   0.523   7.048 -0.0747 -0.4846  1.2838
   93SAPC    HB 8963   2.838   0.355   6.991 -1.2664 -0.9577 -0.2565
   93SAPC    C2 8964   2.733   0.470   6.842 -1.2289  0.7607  0.2902
   93SAPC    HS 8965   2.650   0.543   6.830 -0.0988  2.1780  0.7335
   93SAPC   O21 8966   2.691   0.345   6.779  0.0641  0.2901  0.2072
   93SAPC   C21 8967   2.582   0.353   6.695 -0.2673  0.1660 -1.0662
   93SAPC   O22 8968   2.511   0.449   6.680  0.0654  0.2424  0.0542
   93SAPC   C22 8969   2.584   0.218   6.618  0.9662 -0.1240 -0.2764
   93SAPC   H2R 8970   2.541   0.141   6.686  0.3770 -1.2889 -1.8993
   93SAPC   H2S 8971   2.514   0.233   6.533  2.5523  1.3470 -1.3794
   93SAPC    C3 8972   2.855   0.521   6.770 -0.1461 -0.0295 -0.0408
   93SAPC    HX 8973   2.947   0.485   6.821 -0.3932 -0.1038  0.3595
   93SAPC    HY 8974   2.858   0.630   6.794 -0.6684 -0.1407  0.5347
   93SAPC   O31 8975   2.847   0.495   6.625  0.0083 -0.1263  0.0972
   93SAPC   C31 8976   2.915   0.572   6.551  0.3478 -0.6999  0.1119
   93SAPC   O32 8977   2.995   0.657   6.585  0.0629  0.0549 -0.7125
   93SAPC   C32 8978   2.898   0.542   6.399 -0.5346  0.1560  0.0065
   93SAPC   H2X 8979   2.865   0.639   6.355 -0.4722 -0.6425 -1.8875
   93SAPC   H2Y 8980   2.813   0.472   6.387 -3.9009  3.8399  0.0334
   93SAPC   C23 8981   2.717   0.151   6.569 -0.2171 -0.0512  0.0179
   93SAPC   H3R 8982   2.751   0.093   6.658 -0.3307 -0.0535  0.0596
   93SAPC   H3S 8983   2.798   0.220   6.538 -1.0083 -0.1101 -2.3528
   93SAPC   C24 8984   2.698   0.048   6.451 -0.4593  0.0353 -0.5681
   93SAPC   H4R 8985   2.668   0.120   6.371 -1.3690  3.7043  2.7829
   93SAPC   H4S 8986   2.619  -0.024   6.481  0.4304 -1.7915 -2.3514
   93SAPC   C25 8987   2.825  -0.021   6.423 -0.1963  0.7239  0.4059
   93SAPC   H5R 8988   2.889  -0.058   6.504 -0.0757 -0.4165 -0.1857
   93SAPC   C26 8989   2.877  -0.037   6.300  0.3618 -0.0605  0.3646
   93SAPC   H6R 8990   2.982  -0.068   6.301  0.7445  1.1033  2.0220
   93SAPC   C27 8991   2.819   0.020   6.172  0.0401  0.0414 -0.4191
   93SAPC   H7R 8992   2.897   0.051   6.099  0.1306 -0.7951 -0.6898
   93SAPC   H7S 8993   2.768   0.114   6.201 -1.8681 -0.9697 -0.3566
   93SAPC   C28 8994   2.701  -0.052   6.117  0.0252 -0.2211  0.3822
   93SAPC   H8R 8995   2.626  -0.080   6.192 -1.2100  1.1682 -0.2838
   93SAPC   C29 8996   2.679  -0.076   5.986  0.5699 -0.5058 -0.4006
   93SAPC   H9R 8997   2.584  -0.123   5.957  1.2798 -0.3406 -3.3229
   93SAPC  C210 8998   2.766  -0.063   5.862 -0.1658 -0.6635 -0.8222
   93SAPC  H10R 8999   2.760  -0.159   5.807  3.2193 -1.9239  0.7193
   93SAPC  H10S 9000   2.875  -0.059   5.882 -0.2624 -2.8757  0.4097
   93SAPC  C211 9001   2.737   0.061   5.790 -0.2390 -0.4482  0.0785
   93SAPC  H11R 9002   2.695   0.134   5.861  0.0695 -0.4034  0.2139
   93SAPC  C212 9003   2.731   0.088   5.654 -0.6575  0.2103  0.1278
   93SAPC  H12R 9004   2.730   0.196   5.630 -0.8052 -0.0356 -1.0450
   93SAPC  C213 9005   2.756  -0.016   5.544  0.2204 -0.2601  0.4015
   93SAPC  H13R 9006   2.671  -0.085   5.525 -0.3885  1.0568 -2.1237
   93SAPC  H13S 9007   2.834  -0.086   5.582  0.5192 -1.7191 -2.5987
   93SAPC  C214 9008   2.798   0.044   5.413  0.5287 -0.3186  0.1042
   93SAPC  H14R 9009   2.880  -0.012   5.367  0.7953 -1.6358  2.0412
   93SAPC  C215 9010   2.734   0.145   5.347  0.5080 -1.1479 -0.0702
   93SAPC  H15R 9011   2.783   0.182   5.255  0.7090  1.4388  0.9966
   93SAPC  C216 9012   2.605   0.217   5.373 -0.1607 -0.6597 -0.0954
   93SAPC  H16R 9013   2.629   0.324   5.394 -4.2723  0.0204  2.0584
   93SAPC  H16S 9014   2.548   0.167   5.453 -0.4072 -1.0019 -0.4790
   93SAPC  C217 9015   2.506   0.212   5.253  0.2786  0.2595  0.2208
   93SAPC  H17R 9016   2.462   0.110   5.245  1.1587  0.0259 -3.4869
   93SAPC  H17S 9017   2.564   0.206   5.159 -1.1838  0.7497 -0.7414
   93SAPC  C218 9018   2.400   0.323   5.247  0.4022 -0.2435  0.3025
   93SAPC  H18R 9019   2.325   0.295   5.170 -2.2764 -0.7926  2.9246
   93SAPC  H18S 9020   2.451   0.418   5.219  1.2016 -1.0564 -1.0851
   93SAPC  C219 9021   2.315   0.342   5.370 -1.2282  0.5552 -0.1951
   93SAPC  H19R 9022   2.370   0.383   5.457 -2.9085 -3.2287  2.9649
   93SAPC  H19S 9023   2.283   0.241   5.403 -1.0617 -0.1556 -2.1039
   93SAPC  C220 9024   2.192   0.432   5.355 -0.2197 -0.1591  0.4528
   93SAPC  H20R 9025   2.109   0.370   5.315 -0.0765  0.9019 -1.5948
   93SAPC  H20S 9026   2.212   0.511   5.279  0.3190  1.4185  2.1663
   93SAPC  H20T 9027   2.165   0.476   5.453  1.4133 -0.2112  0.9525
   93SAPC   C33 9028   3.026   0.506   6.321 -0.2833  0.3869  0.4879
   93SAPC   H3X 9029   3.069   0.411   6.358  1.0318  0.8159  0.0904
   93SAPC   H3Y 9030   3.109   0.579   6.321  0.2956 -0.2281 -1.0294
   93SAPC   C34 9031   2.993   0.481   6.172  0.0538  0.9904  0.0633
   93SAPC   H4X 9032   2.925   0.394   6.155 -1.0793  2.1562 -1.7398
   93SAPC   H4Y 9033   3.096   0.463   6.136  0.4607 -1.3265  2.1011
   93SAPC   C35 9034   2.928   0.601   6.090  0.1455  0.0446 -0.1101
   93SAPC   H5X 9035   2.976   0.702   6.092 -0.8264  0.5067  0.5231
   93SAPC   H5Y 9036   2.827   0.634   6.120  0.3966  0.8012 -0.0660
   93SAPC   C36 9037   2.914   0.554   5.942 -0.4789  0.5108 -0.7080
   93SAPC   H6X 9038   2.839   0.619   5.891 -2.3605  0.3074  1.6289
   93SAPC   H6Y 9039   2.870   0.452   5.946  2.2265 -0.7135  1.0708
   93SAPC   C37 9040   3.047   0.533   5.865  0.0221  0.6739  0.2050
   93SAPC   H7X 9041   3.120   0.469   5.918  1.6630 -1.3264 -4.0437
   93SAPC   H7Y 9042   3.096   0.632   5.859  1.7805 -0.1686  0.2011
   93SAPC   C38 9043   3.030   0.459   5.730  0.2310  0.7089  0.5707
   93SAPC   H8X 9044   2.985   0.538   5.667  1.7783  0.6625 -0.6508
   93SAPC   H8Y 9045   2.962   0.372   5.745  1.4144 -0.4958 -0.7172
   93SAPC   C39 9046   3.150   0.398   5.664  0.5944  0.2960  0.1580
   93SAPC   H9X 9047   3.187   0.306   5.715 -2.8251 -0.6144  1.2636
   93SAPC   H9Y 9048   3.240   0.464   5.673  0.6731  0.0947  0.9415
   93SAPC  C310 9049   3.121   0.357   5.515  0.3983 -0.2823 -0.6175
   93SAPC  H10X 9050   3.052   0.437   5.481  0.0763 -1.1920 -2.1626
   93SAPC  H10Y 9051   3.054   0.269   5.511 -1.4930  1.0357  0.2615
   93SAPC  C311 9052   3.245   0.350   5.423 -0.3689  0.2655  0.4762
   93SAPC  H11X 9053   3.317   0.269   5.448 -0.4353  0.1122  0.1788
   93SAPC  H11Y 9054   3.301   0.446   5.428 -1.9204  1.3783 -1.7866
   93SAPC  C312 9055   3.206   0.327   5.274  0.2429  0.0641 -0.3912
   93SAPC  H12X 9056   3.291   0.356   5.208  0.6408 -1.4287 -0.5760
   93SAPC  H12Y 9057   3.128   0.403   5.251 -0.6418 -0.4741  0.7881
   93SAPC  C313 9058   3.164   0.184   5.257  0.9185 -0.0771 -0.3026
   93SAPC  H13X 9059   3.077   0.158   5.321 -0.9058  4.2137 -0.6749
   93SAPC  H13Y 9060   3.254   0.122   5.277  2.2056  2.0736  0.9484
   93SAPC  C314 9061   3.101   0.167   5.117 -1.0581  0.1187 -0.8985
   93SAPC  H14X 9062   3.019   0.242   5.112  0.2131  1.6396  0.0901
   93SAPC  H14Y 9063   3.055   0.067   5.101  0.7051 -0.6672 -1.2515
   93SAPC  C315 9064   3.195   0.199   4.997  0.9362  0.1074 -0.0440
   93SAPC  H15X 9065   3.300   0.167   5.015  0.2780 -1.3678  1.3890
   93SAPC  H15Y 9066   3.190   0.310   5.005 -0.4962  0.0331  0.2515
   93SAPC  C316 9067   3.137   0.163   4.860  0.4973 -0.5435 -0.0294
   93SAPC  H16X 9068   3.113   0.054   4.854 -2.1177  0.0209 -1.0922
   93SAPC  H16Y 9069   3.212   0.181   4.780  0.9749 -1.1556  0.2725
   93SAPC  C317 9070   3.013   0.242   4.815 -0.6280 -0.2154 -0.7091
   93SAPC  H17X 9071   3.035   0.351   4.822  0.1959 -0.4436  0.5010
   93SAPC  H17Y 9072   2.935   0.213   4.889  0.8321  1.4861  1.6435
   93SAPC  C318 9073   2.964   0.209   4.679 -0.4488  0.9997  0.9037
   93SAPC  H18X 9074   2.938   0.102   4.672 -2.7626  1.6016 -1.0755
   93SAPC  H18Y 9075   3.041   0.233   4.602 -0.2965  0.3187  0.8417
   93SAPC  H18Z 9076   2.872   0.269   4.661 -1.3098  0.2459  2.5571
   94SAPC     N 9077   3.924   6.013   7.406  0.3461 -0.0398  0.1770
   94SAPC   C12 9078   3.812   6.106   7.355 -0.4866  0.5906 -0.7241
   94SAPC  H12A 9079   3.861   6.182   7.296  2.0956  0.4281  1.0547
   94SAPC  H12B 9080   3.762   6.150   7.440  0.9247 -0.9983  1.0082
   94SAPC   C13 9081   3.982   5.950   7.283  0.4451 -0.6223  0.1108
   94SAPC  H13A 9082   4.003   6.036   7.221 -1.5198 -0.7274 -0.7466
   94SAPC  H13B 9083   4.073   5.895   7.300  1.7914  1.1367 -1.0316
   94SAPC  H13C 9084   3.918   5.890   7.221  0.6600 -1.0152  0.2663
   94SAPC   C14 9085   4.026   6.095   7.475 -0.5358 -0.4914 -0.2441
   94SAPC  H14A 9086   4.002   6.113   7.579  0.1109  0.0946 -0.1890
   94SAPC  H14B 9087   4.120   6.042   7.470  0.2021  0.9116 -2.2937
   94SAPC  H14C 9088   4.046   6.188   7.425 -2.2246 -1.3511 -2.6612
   94SAPC   C15 9089   3.872   5.909   7.497  0.1624  0.0745  0.1275
   94SAPC  H15A 9090   3.821   5.837   7.434  2.1033 -2.6576  1.5051
   94SAPC  H15B 9091   3.946   5.846   7.543  0.2459 -0.1578 -0.3192
   94SAPC  H15C 9092   3.806   5.942   7.576  2.5697  3.4680  0.9554
   94SAPC   C11 9093   3.698   6.045   7.276 -0.6934  0.5671  0.6349
   94SAPC  H11A 9094   3.616   6.117   7.255 -1.9263 -1.4707 -2.1657
   94SAPC  H11B 9095   3.639   5.972   7.336 -0.1711  1.7549  2.6812
   94SAPC     P 9096   3.648   5.901   7.065 -0.3237  0.2757  0.6820
   94SAPC   O13 9097   3.696   5.866   6.925  0.4852  0.3208  0.1232
   94SAPC   O14 9098   3.629   5.779   7.150  0.3228  0.1004 -0.5503
   94SAPC   O12 9099   3.742   6.000   7.146 -0.0548  0.3843  0.0976
   94SAPC   O11 9100   3.503   5.972   7.060  0.1664 -0.0354 -0.1123
   94SAPC    C1 9101   3.494   6.086   6.968 -0.5709  0.1403 -0.2516
   94SAPC    HA 9102   3.446   6.173   7.018 -0.6612  0.2913 -0.6005
   94SAPC    HB 9103   3.591   6.133   6.941  0.4121 -1.0842  0.9680
   94SAPC    C2 9104   3.403   6.044   6.851  0.2037 -0.9067  0.5488
   94SAPC    HS 9105   3.317   5.985   6.890 -0.4475  0.6546  1.5604
   94SAPC   O21 9106   3.474   5.970   6.747  0.0276  0.6607 -0.8221
   94SAPC   C21 9107   3.453   5.832   6.742 -0.5874 -0.3142  0.0408
   94SAPC   O22 9108   3.388   5.767   6.819  0.3261 -0.0569  0.0684
   94SAPC   C22 9109   3.530   5.769   6.622 -0.7553  0.0963  0.5804
   94SAPC   H2R 9110   3.605   5.836   6.576 -2.3157  0.4115 -1.6472
   94SAPC   H2S 9111   3.591   5.689   6.670  0.0350  1.5395  2.0829
   94SAPC    C3 9112   3.328   6.164   6.783  1.0242 -0.3553  0.0408
   94SAPC    HX 9113   3.392   6.253   6.764 -2.1714  1.8296 -1.6427
   94SAPC    HY 9114   3.254   6.205   6.856 -0.8977 -1.3282 -1.2568
   94SAPC   O31 9115   3.244   6.141   6.665 -0.2645 -0.1569  0.0624
   94SAPC   C31 9116   3.131   6.069   6.676 -0.8623  0.7493 -0.0810
   94SAPC   O32 9117   3.091   6.008   6.772 -0.1912  0.5661  0.4697
   94SAPC   C32 9118   3.057   6.097   6.546  0.7510 -0.3068  0.4458
   94SAPC   H2X 9119   3.140   6.098   6.472  3.0118 -1.2059  2.8113
   94SAPC   H2Y 9120   3.010   6.197   6.554 -1.1176 -0.9666 -1.3756
   94SAPC   C23 9121   3.436   5.729   6.509  0.1074 -0.1735 -1.1381
   94SAPC   H3R 9122   3.353   5.673   6.556  0.2349  0.7985  0.3010
   94SAPC   H3S 9123   3.485   5.657   6.440 -2.7435 -3.4126 -0.0363
   94SAPC   C24 9124   3.370   5.847   6.427  0.6592  0.3628  0.2599
   94SAPC   H4R 9125   3.305   5.902   6.498  3.3525  4.7059 -0.2713
   94SAPC   H4S 9126   3.310   5.802   6.345  0.1207  0.3090  0.6794
   94SAPC   C25 9127   3.478   5.934   6.374 -0.1686 -0.5031 -0.4563
   94SAPC   H5R 9128   3.531   5.985   6.455 -0.2367 -0.6267 -0.3343
   94SAPC   C26 9129   3.506   5.962   6.246  0.0212 -0.2767  0.2432
   94SAPC   H6R 9130   3.602   6.014   6.236  0.0451 -0.3575  0.0448
   94SAPC   C27 9131   3.436   5.912   6.126  0.5581  0.3159  0.5487
   94SAPC   H7R 9132   3.402   5.988   6.052 -0.9682  0.3921  1.2923
   94SAPC   H7S 9133   3.335   5.878   6.159  0.4928  0.0127  0.0456
   94SAPC   C28 9134   3.525   5.808   6.060  1.1784 -0.6599  0.1446
   94SAPC   H8R 9135   3.572   5.740   6.133 -0.9800 -2.1741  0.2457
   94SAPC   C29 9136   3.552   5.789   5.927  0.2866  0.1821 -0.5092
   94SAPC   H9R 9137   3.610   5.700   5.898 -1.2700 -1.0016 -0.1244
   94SAPC  C210 9138   3.506   5.865   5.813  0.2348 -0.8952  0.2172
   94SAPC  H10R 9139   3.589   5.923   5.767 -0.1229 -0.9638 -0.5341
   94SAPC  H10S 9140   3.431   5.939   5.846  0.9606 -0.2983  0.5592
   94SAPC  C211 9141   3.429   5.779   5.726  0.3718  0.0717 -0.5722
   94SAPC  H11R 9142   3.375   5.691   5.765  0.9649 -0.4412 -0.8738
   94SAPC  C212 9143   3.414   5.795   5.595  0.4145 -0.6891  0.1707
   94SAPC  H12R 9144   3.357   5.723   5.535  0.9441 -0.9485 -0.0203
   94SAPC  C213 9145   3.445   5.926   5.520  0.4670  0.0875  0.4428
   94SAPC  H13R 9146   3.532   5.966   5.577  1.3149 -0.7507 -0.2323
   94SAPC  H13S 9147   3.360   5.997   5.529 -0.4983 -1.0626  0.6302
   94SAPC  C214 9148   3.473   5.905   5.371 -0.7565  0.2283 -0.4551
   94SAPC  H14R 9149   3.460   5.800   5.338  0.3182 -1.0148  2.7535
   94SAPC  C215 9150   3.498   6.006   5.284 -0.0622 -0.1102  0.1244
   94SAPC  H15R 9151   3.515   5.978   5.179  1.9968 -0.2398  0.4586
   94SAPC  C216 9152   3.521   6.144   5.327 -0.0186 -0.1974  0.5420
   94SAPC  H16R 9153   3.547   6.174   5.431  1.5233  2.4664 -0.5004
   94SAPC  H16S 9154   3.423   6.190   5.301 -0.3657  0.4762  2.8543
   94SAPC  C217 9155   3.631   6.206   5.241 -0.4278 -0.4277  0.5109
   94SAPC  H17R 9156   3.620   6.173   5.136 -0.3844 -0.1943  0.4344
   94SAPC  H17S 9157   3.738   6.195   5.270  0.5959  0.0564 -2.7085
   94SAPC  C218 9158   3.599   6.355   5.231 -0.0231  0.0150 -0.1812
   94SAPC  H18R 9159   3.576   6.394   5.332  0.6036 -0.4757  0.1545
   94SAPC  H18S 9160   3.508   6.357   5.167  0.6034  1.1126 -1.0850
   94SAPC  C219 9161   3.713   6.435   5.156 -0.5648  0.2415 -0.3742
   94SAPC  H19R 9162   3.706   6.404   5.049 -1.3129 -0.1215 -0.2308
   94SAPC  H19S 9163   3.811   6.418   5.204 -0.9699 -1.6143 -0.1389
   94SAPC  C220 9164   3.685   6.584   5.169 -1.1895 -1.3530 -0.6537
   94SAPC  H20R 9165   3.768   6.658   5.159 -0.9800 -1.5153 -0.1637
   94SAPC  H20S 9166   3.655   6.605   5.274  2.3279  1.6653 -0.0504
   94SAPC  H20T 9167   3.597   6.602   5.105 -1.2093 -1.6956 -0.7267
   94SAPC   C33 9168   2.955   5.996   6.493 -0.1129  0.3315 -0.1800
   94SAPC   H3X 9169   2.883   5.975   6.575  1.0851 -0.0101  0.8144
   94SAPC   H3Y 9170   3.010   5.902   6.470 -2.5734 -0.5424 -3.0256
   94SAPC   C34 9171   2.857   6.050   6.392 -0.6123 -0.4023  0.0905
   94SAPC   H4X 9172   2.818   6.143   6.439 -0.5710 -0.9443  1.2318
   94SAPC   H4Y 9173   2.775   5.975   6.383  0.5667 -2.2785  3.2500
   94SAPC   C35 9174   2.925   6.076   6.257 -0.0933  0.5691  0.0150
   94SAPC   H5X 9175   3.003   6.154   6.264 -2.2654  2.7473  1.3699
   94SAPC   H5Y 9176   2.847   6.113   6.187 -0.0081  0.1342 -0.3148
   94SAPC   C36 9177   3.009   5.957   6.197  0.1648 -1.0521 -0.3066
   94SAPC   H6X 9178   2.949   5.864   6.197 -0.4199 -0.7667  2.4005
   94SAPC   H6Y 9179   3.099   5.939   6.261 -1.0951 -1.8453  1.3140
   94SAPC   C37 9180   3.049   5.982   6.051  0.3693 -0.2943  0.1798
   94SAPC   H7X 9181   2.962   5.995   5.982  1.6433  0.4593 -1.3503
   94SAPC   H7Y 9182   3.107   5.895   6.015  1.4678  0.4032  0.2345
   94SAPC   C38 9183   3.147   6.099   6.029 -0.0237 -0.1918  0.5658
   94SAPC   H8X 9184   3.241   6.098   6.089 -0.1188 -1.0682  0.7203
   94SAPC   H8Y 9185   3.094   6.194   6.048 -0.2093 -0.2694  0.4379
   94SAPC   C39 9186   3.182   6.113   5.882  0.2389 -0.3549  0.6772
   94SAPC   H9X 9187   3.212   6.014   5.840 -2.5767 -1.5127  1.1456
   94SAPC   H9Y 9188   3.257   6.193   5.867 -0.1934  0.0566  0.7195
   94SAPC  C310 9189   3.065   6.149   5.784  0.2990  0.3354  0.0974
   94SAPC  H10X 9190   3.090   6.246   5.738 -2.8353  0.6395 -1.2451
   94SAPC  H10Y 9191   2.974   6.167   5.845  0.6150 -0.8980  0.9945
   94SAPC  C311 9192   3.039   6.048   5.676  0.5155 -0.3631 -0.0027
   94SAPC  H11X 9193   3.015   5.957   5.735  0.5366 -0.2151  0.2354
   94SAPC  H11Y 9194   3.131   6.031   5.617  1.1207  1.5786  0.3055
   94SAPC  C312 9195   2.928   6.091   5.583  0.1751 -0.0146 -0.2393
   94SAPC  H12X 9196   2.957   6.192   5.545  0.1440  0.2835  0.4957
   94SAPC  H12Y 9197   2.836   6.108   5.643  0.6465  1.5947  0.0858
   94SAPC  C313 9198   2.900   5.985   5.477 -0.6808 -0.3373 -0.0978
   94SAPC  H13X 9199   2.804   6.017   5.433  0.7282  1.7204 -1.8934
   94SAPC  H13Y 9200   2.886   5.882   5.517 -1.0254 -0.3577 -0.2730
   94SAPC  C314 9201   2.993   5.989   5.358  0.0437 -0.0695  0.5861
   94SAPC  H14X 9202   2.963   5.903   5.294 -0.6048 -0.2240  1.0872
   94SAPC  H14Y 9203   3.099   5.972   5.387  0.3930 -0.0188 -0.6046
   94SAPC  C315 9204   2.992   6.127   5.284 -0.4660  0.2616  0.2595
   94SAPC  H15X 9205   3.050   6.205   5.336  0.2256  2.2298 -3.1552
   94SAPC  H15Y 9206   2.888   6.166   5.277  0.1603  1.8094 -0.9715
   94SAPC  C316 9207   3.047   6.102   5.138 -0.2234 -0.7225 -0.2941
   94SAPC  H16X 9208   3.137   6.038   5.144  0.8375  0.8007  0.6219
   94SAPC  H16Y 9209   3.093   6.197   5.103  3.4442 -3.0135 -2.3301
   94SAPC  C317 9210   2.944   6.042   5.037 -0.6075 -0.4802  0.2314
   94SAPC  H17X 9211   2.864   6.118   5.027  0.2081  0.1231 -2.4778
   94SAPC  H17Y 9212   2.896   5.949   5.075 -1.4825 -0.2824 -0.3654
   94SAPC  C318 9213   3.005   6.011   4.900 -0.4675  0.0101  0.0214
   94SAPC  H18X 9214   2.918   5.968   4.846  0.4745  0.7217 -2.1756
   94SAPC  H18Y 9215   3.081   5.930   4.907 -0.8866 -0.7935 -2.9973
   94SAPC  H18Z 9216   3.057   6.098   4.854  0.3588 -0.7342 -0.5051
   95SAPC     N 9217   1.144   1.469   1.995  0.7485 -0.5981  0.3827
   95SAPC   C12 9218   1.219   1.462   2.124 -0.0400  0.2173  0.2464
   95SAPC  H12A 9219   1.294   1.539   2.119  0.4233 -0.2699 -0.7995
   95SAPC  H12B 9220   1.271   1.367   2.125  1.3343  0.8244 -2.6340
   95SAPC   C13 9221   1.037   1.569   1.998 -0.0805 -0.0528  1.0523
   95SAPC  H13A 9222   0.968   1.550   2.079  1.2856 -0.2132  2.2014
   95SAPC  H13B 9223   1.080   1.667   2.012 -0.6430  0.3883 -0.1518
   95SAPC  H13C 9224   0.989   1.578   1.901  0.2446  0.6276  0.9542
   95SAPC   C14 9225   1.234   1.484   1.874 -0.0398  0.1290  0.3307
   95SAPC  H14A 9226   1.302   1.401   1.863  1.1338  1.0906  0.1702
   95SAPC  H14B 9227   1.177   1.494   1.782  2.8958 -0.2859 -1.6858
   95SAPC  H14C 9228   1.304   1.566   1.876  0.2485 -0.1104  0.1832
   95SAPC   C15 9229   1.090   1.328   1.965 -0.1796  0.1786 -0.8573
   95SAPC  H15A 9230   1.018   1.337   1.885  0.4767  0.3078 -1.4464
   95SAPC  H15B 9231   1.167   1.260   1.931 -0.0266 -0.7710  1.2526
   95SAPC  H15C 9232   1.053   1.285   2.057  1.3776  2.2964  0.8804
   95SAPC   C11 9233   1.144   1.480   2.255  0.0347 -0.1864  0.6428
   95SAPC  H11A 9234   1.095   1.580   2.256  0.4139  0.0391 -0.9567
   95SAPC  H11B 9235   1.211   1.488   2.344  0.5840 -2.0675  0.4370
   95SAPC     P 9236   0.903   1.401   2.304 -0.2145  0.3572 -0.0432
   95SAPC   O13 9237   0.847   1.504   2.213 -0.3275  0.1377  0.2468
   95SAPC   O14 9238   0.840   1.267   2.308  0.4797 -0.0413  0.1204
   95SAPC   O12 9239   1.053   1.376   2.278  0.1097  0.1524  0.1592
   95SAPC   O11 9240   0.894   1.464   2.448  0.3805  0.0141 -0.2770
   95SAPC    C1 9241   0.998   1.420   2.540  0.3382  0.6020 -0.7773
   95SAPC    HA 9242   1.042   1.323   2.509  0.5863  0.9974 -1.7231
   95SAPC    HB 9243   1.084   1.491   2.542  0.6683  0.2520 -2.0176
   95SAPC    C2 9244   0.942   1.406   2.688 -0.5725 -0.0460  0.0814
   95SAPC    HS 9245   0.858   1.334   2.677 -1.1553  0.6311  0.0608
   95SAPC   O21 9246   0.898   1.539   2.732 -0.4743 -0.0440 -0.5002
   95SAPC   C21 9247   0.782   1.537   2.805 -0.0762  0.5609  0.6097
   95SAPC   O22 9248   0.727   1.434   2.842  0.2551  0.4273 -0.1236
   95SAPC   C22 9249   0.732   1.673   2.843 -0.4446  0.2969 -0.2946
   95SAPC   H2R 9250   0.821   1.723   2.887  0.1047  0.0331 -1.0899
   95SAPC   H2S 9251   0.713   1.734   2.752  2.4906 -0.3898 -1.4804
   95SAPC    C3 9252   1.048   1.346   2.782 -0.1954 -0.0808  0.1228
   95SAPC    HX 9253   1.143   1.403   2.770 -1.2054  1.8126  0.7574
   95SAPC    HY 9254   1.053   1.241   2.746  1.0637 -0.1859  0.5834
   95SAPC   O31 9255   1.000   1.350   2.920  0.5674  0.1082 -0.0039
   95SAPC   C31 9256   1.043   1.442   2.995 -0.0629 -0.1663 -0.2241
   95SAPC   O32 9257   1.120   1.532   2.961  0.3920 -0.2700  0.0593
   95SAPC   C32 9258   0.993   1.429   3.138  0.0643  0.8943 -0.4750
   95SAPC   H2X 9259   1.042   1.338   3.179  1.5842  0.7367 -2.4941
   95SAPC   H2Y 9260   0.883   1.415   3.142 -0.1976  2.8079 -0.2986
   95SAPC   C23 9261   0.615   1.645   2.938  0.6959  0.0869  0.0113
   95SAPC   H3R 9262   0.643   1.568   3.013 -3.7183  0.2785  2.2427
   95SAPC   H3S 9263   0.540   1.599   2.870  2.7072 -1.3201 -1.3322
   95SAPC   C24 9264   0.579   1.758   3.034 -0.2087 -0.8594  0.4591
   95SAPC   H4R 9265   0.666   1.811   3.077  0.5736 -1.2849 -0.5339
   95SAPC   H4S 9266   0.519   1.729   3.122 -0.3473  0.9532  0.9954
   95SAPC   C25 9267   0.484   1.841   2.943  0.1030  0.2753  0.4527
   95SAPC   H5R 9268   0.500   1.844   2.835  2.7611 -2.1842  0.6403
   95SAPC   C26 9269   0.374   1.903   2.986 -0.0376  0.3549  0.5561
   95SAPC   H6R 9270   0.312   1.953   2.911  1.1480  1.5996  0.3495
   95SAPC   C27 9271   0.324   1.921   3.126 -0.2515 -0.0884  0.0637
   95SAPC   H7R 9272   0.280   2.023   3.128 -0.3623 -0.1127  2.9851
   95SAPC   H7S 9273   0.410   1.916   3.196  0.5913 -1.8412 -1.0235
   95SAPC   C28 9274   0.214   1.828   3.170 -0.1036  0.1235  1.0039
   95SAPC   H8R 9275   0.220   1.728   3.124  3.5206  0.3403  0.6839
   95SAPC   C29 9276   0.120   1.854   3.258 -0.0939 -0.1102 -0.0716
   95SAPC   H9R 9277   0.035   1.784   3.262  0.0581 -0.3402 -0.6603
   95SAPC  C210 9278   0.106   1.986   3.335  0.2607 -0.8211 -0.0988
   95SAPC  H10R 9279   0.154   2.068   3.277  0.2001 -0.1890  0.7149
   95SAPC  H10S 9280   0.163   1.976   3.429 -0.3031 -0.0024  0.3435
   95SAPC  C211 9281  -0.033   2.024   3.368 -0.2233  0.2620  0.5278
   95SAPC  H11R 9282  -0.108   2.025   3.287 -0.0958  1.9866  0.3788
   95SAPC  C212 9283  -0.087   2.044   3.493 -0.0809 -0.4781  0.1690
   95SAPC  H12R 9284  -0.193   2.067   3.510 -0.7689 -3.3085  0.2826
   95SAPC  C213 9285  -0.012   2.048   3.620  0.5982 -0.1428 -0.3122
   95SAPC  H13R 9286  -0.034   2.143   3.673 -1.8039 -0.7658 -0.0854
   95SAPC  H13S 9287   0.095   2.068   3.595  1.0551 -0.8862  0.9663
   95SAPC  C214 9288  -0.023   1.928   3.708  0.2373  0.3126 -0.3841
   95SAPC  H14R 9289   0.002   1.830   3.665 -3.3083 -1.3012  0.8597
   95SAPC  C215 9290  -0.068   1.913   3.836 -0.1422 -0.0873  0.3809
   95SAPC  H15R 9291  -0.078   1.814   3.883  0.9896 -1.3700 -1.9224
   95SAPC  C216 9292  -0.139   2.026   3.914  0.3136 -0.1391  0.6831
   95SAPC  H16R 9293  -0.214   1.976   3.979 -0.1221 -3.0418 -1.8367
   95SAPC  H16S 9294  -0.192   2.095   3.846  0.0456 -0.6751  0.3398
   95SAPC  C217 9295  -0.038   2.103   4.003  0.3695 -1.2756 -0.0733
   95SAPC  H17R 9296   0.049   2.136   3.943  1.2803  1.2640  2.3982
   95SAPC  H17S 9297  -0.012   2.041   4.092 -0.5276 -1.2157  0.2433
   95SAPC  C218 9298  -0.088   2.237   4.064  0.0337 -0.2354 -0.3367
   95SAPC  H18R 9299  -0.017   2.266   4.145 -0.4508 -1.6157  0.6446
   95SAPC  H18S 9300  -0.184   2.211   4.114 -0.2579 -2.2301 -1.8132
   95SAPC  C219 9301  -0.108   2.347   3.964 -0.1700 -0.2648  0.1622
   95SAPC  H19R 9302  -0.194   2.324   3.897 -0.3740  0.0517  0.3084
   95SAPC  H19S 9303  -0.014   2.348   3.905  0.3478  0.7649  0.9756
   95SAPC  C220 9304  -0.135   2.489   4.015  0.8040 -0.1017  0.2465
   95SAPC  H20R 9305  -0.049   2.522   4.077  1.0186  0.5869 -0.4118
   95SAPC  H20S 9306  -0.229   2.481   4.075  0.3879  1.1591 -0.2188
   95SAPC  H20T 9307  -0.151   2.561   3.932  1.0049 -0.9243 -0.5187
   95SAPC   C33 9308   1.032   1.556   3.219  0.1884 -0.0925  0.1620
   95SAPC   H3X 9309   0.990   1.647   3.171  2.5848  1.8532  1.5299
   95SAPC   H3Y 9310   1.141   1.576   3.215 -0.1981  2.6262  1.3203
   95SAPC   C34 9311   0.975   1.546   3.362 -0.6078 -0.0892  0.2050
   95SAPC   H4X 9312   0.864   1.550   3.369 -0.7623  1.0070 -1.9334
   95SAPC   H4Y 9313   1.012   1.639   3.411  0.6756  0.3842 -1.5580
   95SAPC   C35 9314   1.029   1.425   3.438  0.1959  0.2390 -0.2922
   95SAPC   H5X 9315   1.049   1.342   3.367 -3.3156 -0.7915 -0.2740
   95SAPC   H5Y 9316   0.958   1.379   3.510  0.6353  0.8496  0.5503
   95SAPC   C36 9317   1.146   1.469   3.528  0.5613 -0.2911  0.4041
   95SAPC   H6X 9318   1.219   1.533   3.473  0.9282 -1.1159 -0.0901
   95SAPC   H6Y 9319   1.198   1.377   3.562  2.2646  0.7627  0.7994
   95SAPC   C37 9320   1.110   1.549   3.654 -0.2978 -0.0874  0.3236
   95SAPC   H7X 9321   1.007   1.518   3.686 -0.0328 -0.3026  0.9874
   95SAPC   H7Y 9322   1.124   1.654   3.623 -0.0129 -0.1869  0.1154
   95SAPC   C38 9323   1.212   1.528   3.773 -0.2741  0.5353 -0.0056
   95SAPC   H8X 9324   1.314   1.545   3.733  0.4354  0.3754  1.6631
   95SAPC   H8Y 9325   1.200   1.421   3.800 -0.2167  0.5613  0.1252
   95SAPC   C39 9326   1.189   1.612   3.907  0.1730 -0.0595  0.0963
   95SAPC   H9X 9327   1.106   1.566   3.964  1.1125 -0.7492  0.9388
   95SAPC   H9Y 9328   1.177   1.720   3.886  2.2985 -0.1425 -2.0845
   95SAPC  C310 9329   1.305   1.585   4.006  0.5207 -1.1704  0.6726
   95SAPC  H10X 9330   1.392   1.646   3.973  0.1453  0.7212  2.9247
   95SAPC  H10Y 9331   1.341   1.481   3.993  1.4992 -0.7781  0.1606
   95SAPC  C311 9332   1.264   1.632   4.145  0.1999  0.0568 -0.0222
   95SAPC  H11X 9333   1.205   1.726   4.140 -2.0619 -1.3133 -0.4573
   95SAPC  H11Y 9334   1.359   1.670   4.188  0.5903  1.1501 -1.7533
   95SAPC  C312 9335   1.189   1.514   4.218  0.1229 -0.6651  0.3432
   95SAPC  H12X 9336   1.257   1.464   4.291 -1.7637  1.5531  3.8955
   95SAPC  H12Y 9337   1.141   1.441   4.150 -3.3569 -0.3777  2.2956
   95SAPC  C313 9338   1.075   1.565   4.308 -0.1677  0.2697  0.0258
   95SAPC  H13X 9339   1.006   1.628   4.247  1.3459  2.9040  0.8553
   95SAPC  H13Y 9340   1.120   1.638   4.379  1.9013  0.3253 -1.2607
   95SAPC  C314 9341   1.006   1.447   4.380 -0.4336 -0.4136 -0.5489
   95SAPC  H14X 9342   1.055   1.348   4.384 -1.9425 -1.1599  0.9169
   95SAPC  H14Y 9343   0.919   1.417   4.318 -0.6929  0.8247 -0.8109
   95SAPC  C315 9344   0.953   1.483   4.519 -0.5052 -0.0970  1.1210
   95SAPC  H15X 9345   0.932   1.592   4.516 -0.6726 -0.1466 -1.2787
   95SAPC  H15Y 9346   1.037   1.463   4.589  1.1579  4.2081  0.6317
   95SAPC  C316 9347   0.833   1.398   4.561 -0.3038 -0.0127  0.4973
   95SAPC  H16X 9348   0.846   1.299   4.511 -0.4284  0.0138  0.4116
   95SAPC  H16Y 9349   0.737   1.438   4.523 -2.1389 -3.1110  1.5302
   95SAPC  C317 9350   0.829   1.387   4.712 -0.2401 -0.0851  0.1969
   95SAPC  H17X 9351   0.928   1.357   4.753  0.6565  0.6780 -1.3256
   95SAPC  H17Y 9352   0.760   1.310   4.753 -1.2822  1.2095  0.9709
   95SAPC  C318 9353   0.795   1.521   4.779  0.0787  0.1223  0.7175
   95SAPC  H18X 9354   0.794   1.518   4.890  1.6248 -0.1172  0.7419
   95SAPC  H18Y 9355   0.701   1.561   4.736  0.6339  0.2461 -0.4202
   95SAPC  H18Z 9356   0.878   1.591   4.757 -0.0693  0.7501  2.1018
   96SAPC     N 9357   0.132   3.472   1.882  0.1409  0.2092 -0.1543
   96SAPC   C12 9358   0.166   3.400   2.013  0.0455 -0.2768  0.8558
   96SAPC  H12A 9359   0.118   3.304   2.003 -0.7109  0.2598 -1.2444
   96SAPC  H12B 9360   0.111   3.446   2.094 -2.7003 -1.7237 -0.0687
   96SAPC   C13 9361   0.172   3.389   1.774 -0.0675 -0.4022 -0.4452
   96SAPC  H13A 9362   0.265   3.338   1.790 -0.4916 -0.2682  3.4318
   96SAPC  H13B 9363   0.105   3.304   1.774  1.3042 -1.6791  3.4098
   96SAPC  H13C 9364   0.169   3.441   1.679 -1.2901  0.8198  0.2260
   96SAPC   C14 9365  -0.013   3.507   1.873 -0.1144  0.2212 -0.2856
   96SAPC  H14A 9366  -0.079   3.422   1.874 -0.8023  0.7368  1.0636
   96SAPC  H14B 9367  -0.039   3.563   1.961  1.6787 -1.4684  1.3973
   96SAPC  H14C 9368  -0.039   3.550   1.777  1.2984 -0.1679 -0.8611
   96SAPC   C15 9369   0.207   3.596   1.872 -0.3738  0.1081  0.3456
   96SAPC  H15A 9370   0.198   3.660   1.958 -2.0386  1.0377 -0.4742
   96SAPC  H15B 9371   0.313   3.580   1.860 -0.5547 -0.6268 -0.3493
   96SAPC  H15C 9372   0.178   3.655   1.786 -1.2159 -0.7376  0.0370
   96SAPC   C11 9373   0.315   3.384   2.039 -0.3856  0.4554  0.9913
   96SAPC  H11A 9374   0.362   3.469   2.094  2.7830  0.0947 -0.9254
   96SAPC  H11B 9375   0.367   3.377   1.941 -1.8625 -1.0157  0.2687
   96SAPC     P 9376   0.357   3.242   2.259  0.1099  0.1606 -0.3815
   96SAPC   O13 9377   0.217   3.250   2.315 -0.2873 -0.0405 -0.4183
   96SAPC   O14 9378   0.431   3.115   2.266  0.2425 -0.6425 -0.3011
   96SAPC   O12 9379   0.342   3.263   2.105  0.6312 -0.4779  0.1953
   96SAPC   O11 9380   0.439   3.358   2.321  0.3801 -0.0052  0.1096
   96SAPC    C1 9381   0.575   3.345   2.371  0.6826  0.2759 -0.3762
   96SAPC    HA 9382   0.624   3.261   2.317 -0.8267  0.0068 -1.3814
   96SAPC    HB 9383   0.636   3.434   2.345  0.0642  0.6914 -0.4283
   96SAPC    C2 9384   0.570   3.320   2.525 -0.4291  0.6021  0.5520
   96SAPC    HS 9385   0.671   3.316   2.569 -0.6966 -2.3291  1.1241
   96SAPC   O21 9386   0.493   3.201   2.551  0.4157  0.2234 -0.2051
   96SAPC   C21 9387   0.562   3.093   2.543  0.5619 -0.2651 -0.6049
   96SAPC   O22 9388   0.684   3.081   2.534 -0.7109 -0.3972 -0.2934
   96SAPC   C22 9389   0.476   2.969   2.559 -0.2872  0.0870 -0.4075
   96SAPC   H2R 9390   0.383   2.978   2.499 -0.1649  2.0147 -0.3602
   96SAPC   H2S 9391   0.536   2.892   2.507  0.5014 -0.8687  1.7955
   96SAPC    C3 9392   0.487   3.441   2.588 -0.5675  0.5297 -0.2532
   96SAPC    HX 9393   0.413   3.482   2.516 -0.1898  0.0669 -0.9139
   96SAPC    HY 9394   0.553   3.528   2.609 -1.0555  0.8646 -0.1180
   96SAPC   O31 9395   0.425   3.397   2.711  0.1258  0.0877  0.2938
   96SAPC   C31 9396   0.293   3.359   2.704 -0.1164 -0.7951 -0.3264
   96SAPC   O32 9397   0.230   3.363   2.599  0.3179 -0.5534 -0.4497
   96SAPC   C32 9398   0.238   3.316   2.845 -0.0277 -0.2936 -0.1994
   96SAPC   H2X 9399   0.315   3.346   2.920 -0.0546 -0.0762 -0.2591
   96SAPC   H2Y 9400   0.234   3.205   2.851  1.1564 -0.3734 -0.4842
   96SAPC   C23 9401   0.451   2.924   2.706 -0.3409 -0.2978  0.6159
   96SAPC   H3R 9402   0.385   2.834   2.698  0.2255 -0.5666 -1.6462
   96SAPC   H3S 9403   0.383   2.996   2.756 -1.3027 -1.5686  1.2122
   96SAPC   C24 9404   0.579   2.892   2.782  0.5465 -0.2177  0.2158
   96SAPC   H4R 9405   0.651   2.977   2.785  1.6966 -1.1752  0.9453
   96SAPC   H4S 9406   0.634   2.815   2.725  1.0284  1.4270 -1.6357
   96SAPC   C25 9407   0.533   2.828   2.912  0.2612  0.0878  0.1264
   96SAPC   H5R 9408   0.485   2.731   2.893 -2.2144  0.6340  2.8928
   96SAPC   C26 9409   0.547   2.878   3.034 -0.1755 -0.4622  0.4295
   96SAPC   H6R 9410   0.505   2.819   3.118  1.3413 -0.5294  1.1845
   96SAPC   C27 9411   0.588   3.018   3.079 -0.2633 -0.1774  0.7970
   96SAPC   H7R 9412   0.620   3.077   2.991 -1.6161 -0.2962  0.2012
   96SAPC   H7S 9413   0.667   3.028   3.157 -1.0862  2.0631  1.4280
   96SAPC   C28 9414   0.458   3.082   3.110  0.7346 -1.3818  0.0239
   96SAPC   H8R 9415   0.369   3.057   3.051  0.6604 -1.9121  0.3496
   96SAPC   C29 9416   0.433   3.164   3.217 -0.0774 -0.2708  0.2415
   96SAPC   H9R 9417   0.326   3.185   3.228 -0.6212 -1.9896 -1.1900
   96SAPC  C210 9418   0.536   3.216   3.315  0.0615 -0.7223 -0.3774
   96SAPC  H10R 9419   0.521   3.326   3.309  1.2049 -0.5652 -0.5750
   96SAPC  H10S 9420   0.638   3.201   3.275 -0.3170 -0.9367 -1.2958
   96SAPC  C211 9421   0.527   3.151   3.448  0.5737  0.4360 -0.4145
   96SAPC  H11R 9422   0.527   3.041   3.436  0.3871  0.5558 -1.6392
   96SAPC  C212 9423   0.529   3.204   3.576 -0.1940 -0.6376  0.4049
   96SAPC  H12R 9424   0.533   3.125   3.653 -0.5970 -0.6230  0.4430
   96SAPC  C213 9425   0.533   3.343   3.617  0.8729 -0.5914  0.2593
   96SAPC  H13R 9426   0.429   3.379   3.632  1.2332 -0.0350  1.6231
   96SAPC  H13S 9427   0.566   3.405   3.531 -2.7860  2.6393  0.8969
   96SAPC  C214 9428   0.614   3.368   3.742  0.4223 -0.6590  0.9650
   96SAPC  H14R 9429   0.708   3.419   3.717 -0.5134  0.6912  0.0305
   96SAPC  C215 9430   0.588   3.348   3.869  0.3915 -0.0526  0.1942
   96SAPC  H15R 9431   0.666   3.386   3.938  0.1464  1.7496 -0.4651
   96SAPC  C216 9432   0.455   3.308   3.926 -0.1618 -0.1516 -0.6349
   96SAPC  H16R 9433   0.423   3.208   3.890  1.2037 -0.8757  0.0831
   96SAPC  H16S 9434   0.375   3.377   3.890  0.0156 -0.7195 -2.1487
   96SAPC  C217 9435   0.466   3.313   4.077  0.2773  0.0030 -0.0981
   96SAPC  H17R 9436   0.557   3.253   4.100  1.9710  1.9125 -1.4917
   96SAPC  H17S 9437   0.373   3.273   4.124 -0.5344  1.8053 -0.0930
   96SAPC  C218 9438   0.485   3.450   4.147 -0.4538 -0.3571 -0.5878
   96SAPC  H18R 9439   0.397   3.508   4.111 -0.2259 -0.9130 -2.1381
   96SAPC  H18S 9440   0.574   3.501   4.103 -0.5512  0.8820  0.5931
   96SAPC  C219 9441   0.504   3.461   4.299  0.1425 -0.5923  0.2634
   96SAPC  H19R 9442   0.594   3.401   4.324  0.3693  0.6116  2.5701
   96SAPC  H19S 9443   0.410   3.420   4.341  1.1032 -1.7104  1.4252
   96SAPC  C220 9444   0.519   3.604   4.349 -0.0608 -0.2580  0.1374
   96SAPC  H20R 9445   0.585   3.617   4.438  1.6760 -0.5157 -1.0695
   96SAPC  H20S 9446   0.418   3.645   4.371 -0.9863 -2.7028  0.8694
   96SAPC  H20T 9447   0.554   3.667   4.265 -0.4324  2.7506  2.0868
   96SAPC   C33 9448   0.104   3.387   2.879 -0.0961  0.0698 -0.1956
   96SAPC   H3X 9449   0.032   3.382   2.793  2.5032  0.7328 -2.5528
   96SAPC   H3Y 9450   0.111   3.496   2.900  2.8731  0.6949 -3.4072
   96SAPC   C34 9451   0.024   3.319   2.992  0.1573  0.1157  0.1866
   96SAPC   H4X 9452   0.009   3.211   2.968 -0.2074  0.1543  0.2388
   96SAPC   H4Y 9453  -0.077   3.364   2.993  0.6515  1.3310 -1.2902
   96SAPC   C35 9454   0.101   3.338   3.122 -0.4466 -0.4169 -0.0714
   96SAPC   H5X 9455   0.139   3.442   3.129  1.8198 -1.2867  1.6179
   96SAPC   H5Y 9456   0.174   3.255   3.114 -1.2150 -1.0940 -0.3092
   96SAPC   C36 9457   0.013   3.322   3.242  0.1449  0.2779  0.1064
   96SAPC   H6X 9458  -0.030   3.220   3.251 -0.7320  0.6154 -0.1578
   96SAPC   H6Y 9459  -0.080   3.382   3.236  0.1760  0.2023 -1.8054
   96SAPC   C37 9460   0.077   3.346   3.385 -0.3908 -0.1677  0.3881
   96SAPC   H7X 9461   0.115   3.449   3.399  1.2721 -0.9918  2.6704
   96SAPC   H7Y 9462   0.167   3.282   3.401  0.7718  1.9081  2.9346
   96SAPC   C38 9463  -0.013   3.315   3.508  0.0558 -0.2658  0.6329
   96SAPC   H8X 9464  -0.040   3.208   3.519 -0.8820 -0.1357 -0.2541
   96SAPC   H8Y 9465  -0.107   3.370   3.488 -0.3252 -0.7731  1.0094
   96SAPC   C39 9466   0.058   3.367   3.635 -0.6019 -0.1082 -0.3773
   96SAPC   H9X 9467   0.066   3.477   3.626 -1.9011  0.4763  3.6261
   96SAPC   H9Y 9468   0.161   3.327   3.638 -0.4050  0.1187 -2.3785
   96SAPC  C310 9469  -0.007   3.320   3.760 -0.2440  0.3090  0.1012
   96SAPC  H10X 9470  -0.040   3.214   3.760 -1.1296  0.5758 -0.3408
   96SAPC  H10Y 9471  -0.096   3.386   3.760 -0.3938  0.1271  1.4512
   96SAPC  C311 9472   0.079   3.343   3.881  0.1479  0.4278 -0.1729
   96SAPC  H11X 9473   0.126   3.443   3.867  0.7714 -0.0329 -1.4800
   96SAPC  H11Y 9474   0.155   3.262   3.869 -1.2152 -1.0982  0.9659
   96SAPC  C312 9475  -0.009   3.330   4.003  0.5365  0.0510 -0.4981
   96SAPC  H12X 9476  -0.042   3.225   4.021  1.3995 -0.1738 -0.1498
   96SAPC  H12Y 9477  -0.093   3.402   4.010 -0.7198 -1.3867 -0.3647
   96SAPC  C313 9478   0.073   3.372   4.137  0.6459  0.1790  0.4135
   96SAPC  H13X 9479   0.108   3.478   4.133  0.9079  0.1086  0.7613
   96SAPC  H13Y 9480   0.167   3.313   4.128 -0.9640 -2.5111  0.2630
   96SAPC  C314 9481   0.005   3.332   4.264 -0.5841 -0.1942  0.1835
   96SAPC  H14X 9482  -0.003   3.222   4.274  2.5909 -0.3070  2.9979
   96SAPC  H14Y 9483  -0.096   3.380   4.273 -0.7265 -0.6168  0.8573
   96SAPC  C315 9484   0.086   3.380   4.382 -0.7755 -1.1547 -0.2204
   96SAPC  H15X 9485   0.117   3.486   4.370 -0.4632 -1.1721  0.3649
   96SAPC  H15Y 9486   0.177   3.321   4.403 -0.4527 -0.3101  0.8825
   96SAPC  C316 9487   0.001   3.387   4.502  0.0095 -0.7314 -0.4279
   96SAPC  H16X 9488  -0.046   3.292   4.534 -0.8586  0.1558  1.0467
   96SAPC  H16Y 9489  -0.070   3.472   4.490  2.5886  1.4887 -0.9563
   96SAPC  C317 9490   0.086   3.423   4.630 -0.6869 -0.9863 -0.3182
   96SAPC  H17X 9491   0.152   3.509   4.604  0.5271 -1.6611  0.4280
   96SAPC  H17Y 9492   0.163   3.346   4.649  1.6849  1.4661  0.6514
   96SAPC  C318 9493   0.012   3.469   4.761 -0.0592 -0.3944 -0.3729
   96SAPC  H18X 9494   0.091   3.488   4.836 -0.2751  0.5446 -0.3631
   96SAPC  H18Y 9495  -0.045   3.387   4.810  1.1591 -2.2656 -1.9280
   96SAPC  H18Z 9496  -0.056   3.554   4.739  1.2330 -0.1274 -4.2928
   97SAPC     N 9497   0.799   0.820   2.806  0.1452 -0.5847 -0.7133
   97SAPC   C12 9498   0.677   0.788   2.888  0.7992  1.0492  0.2091
   97SAPC  H12A 9499   0.669   0.837   2.983 -2.8055  0.6746  0.2517
   97SAPC  H12B 9500   0.697   0.689   2.926  1.0341  1.4698  1.2143
   97SAPC   C13 9501   0.787   0.956   2.748  0.2708  0.4639 -0.3867
   97SAPC  H13A 9502   0.862   0.984   2.676 -0.3779  0.0886 -1.2228
   97SAPC  H13B 9503   0.690   0.966   2.702  0.0452  3.5449  0.5516
   97SAPC  H13C 9504   0.791   1.023   2.833 -0.7940 -1.3382  1.1676
   97SAPC   C14 9505   0.919   0.808   2.897 -0.2836  0.2756 -0.0992
   97SAPC  H14A 9506   0.911   0.872   2.983 -0.6272  0.3039 -0.1489
   97SAPC  H14B 9507   0.927   0.709   2.938  2.3847  0.6793  0.5467
   97SAPC  H14C 9508   1.008   0.826   2.837 -0.8144 -0.3302 -1.1007
   97SAPC   C15 9509   0.825   0.719   2.695  0.3538  0.8660  0.0806
   97SAPC  H15A 9510   0.910   0.747   2.634 -0.1677  1.8731 -0.2020
   97SAPC  H15B 9511   0.842   0.619   2.733  0.3586  0.0229 -1.9995
   97SAPC  H15C 9512   0.737   0.701   2.636 -1.3303  1.4129  2.2879
   97SAPC   C11 9513   0.536   0.803   2.820 -0.2414  0.3209  0.5125
   97SAPC  H11A 9514   0.454   0.758   2.880 -0.1374 -0.5480  0.0168
   97SAPC  H11B 9515   0.553   0.744   2.728 -1.1234 -1.3212  1.3584
   97SAPC     P 9516   0.427   1.037   2.868  0.1470 -0.5042  0.1752
   97SAPC   O13 9517   0.504   1.095   2.977 -0.3328  0.3319 -0.0009
   97SAPC   O14 9518   0.375   1.137   2.772  0.0319 -0.2080 -0.4749
   97SAPC   O12 9519   0.510   0.933   2.779  0.6670  0.3754 -1.0327
   97SAPC   O11 9520   0.304   0.955   2.934 -0.5180 -0.2535 -0.3200
   97SAPC    C1 9521   0.197   1.009   3.014 -0.5638 -0.6026 -0.1056
   97SAPC    HA 9522   0.199   1.120   3.002  2.2106  0.0097  3.9450
   97SAPC    HB 9523   0.102   0.964   2.979 -0.4215 -1.6630  0.8136
   97SAPC    C2 9524   0.213   0.980   3.166  0.2279  0.6183  0.0504
   97SAPC    HS 9525   0.123   1.027   3.212 -0.4569 -1.8002  1.3378
   97SAPC   O21 9526   0.336   1.030   3.216  0.1704  0.2067 -0.8353
   97SAPC   C21 9527   0.350   1.162   3.226  0.9534  0.4195 -0.0975
   97SAPC   O22 9528   0.258   1.245   3.205  0.0083 -0.9037 -0.2584
   97SAPC   C22 9529   0.488   1.193   3.278  0.4856 -0.3445 -0.7289
   97SAPC   H2R 9530   0.485   1.184   3.388 -1.4005  3.3545 -0.3328
   97SAPC   H2S 9531   0.563   1.128   3.228  0.6461 -2.7650  2.3701
   97SAPC    C3 9532   0.201   0.833   3.197  0.1844 -0.5500 -0.3434
   97SAPC    HX 9533   0.285   0.776   3.151 -0.5728 -1.3414 -0.7650
   97SAPC    HY 9534   0.112   0.794   3.143  0.6521 -1.7580 -0.2783
   97SAPC   O31 9535   0.190   0.825   3.341 -0.9278  0.4546  0.1256
   97SAPC   C31 9536   0.295   0.773   3.403  0.5635  0.5056  0.4546
   97SAPC   O32 9537   0.397   0.742   3.343  0.1154  0.0765 -0.6693
   97SAPC   C32 9538   0.284   0.765   3.555 -1.0024  0.7266  0.0415
   97SAPC   H2X 9539   0.387   0.788   3.591 -1.0819 -0.9739  1.4714
   97SAPC   H2Y 9540   0.265   0.659   3.581  0.4909  1.3566  4.4479
   97SAPC   C23 9541   0.528   1.342   3.242  0.6797  0.1602 -0.0180
   97SAPC   H3R 9542   0.448   1.414   3.268 -0.1151 -0.8775  0.5110
   97SAPC   H3S 9543   0.536   1.345   3.131  0.4404 -0.8985 -0.0788
   97SAPC   C24 9544   0.655   1.395   3.317 -0.4711 -0.2157  0.3950
   97SAPC   H4R 9545   0.681   1.496   3.280  2.2347 -1.5559 -1.7415
   97SAPC   H4S 9546   0.737   1.334   3.273  1.5317  0.9364  2.3180
   97SAPC   C25 9547   0.648   1.396   3.469  0.0734 -0.0108 -0.0070
   97SAPC   H5R 9548   0.662   1.300   3.522  1.4525  0.2164  0.0543
   97SAPC   C26 9549   0.627   1.506   3.544 -0.4036  0.6764  0.5313
   97SAPC   H6R 9550   0.591   1.497   3.648 -0.3447  1.5565  0.6436
   97SAPC   C27 9551   0.618   1.646   3.502 -0.1083  0.3880  0.1185
   97SAPC   H7R 9552   0.679   1.661   3.411 -0.5159  1.1555 -0.0353
   97SAPC   H7S 9553   0.662   1.714   3.579  0.9658  1.5211 -1.4261
   97SAPC   C28 9554   0.478   1.699   3.462 -0.5694  0.9364 -0.3615
   97SAPC   H8R 9555   0.466   1.688   3.353  1.9134  1.3282 -0.7221
   97SAPC   C29 9556   0.389   1.767   3.533  0.3891  0.4548  0.1660
   97SAPC   H9R 9557   0.298   1.791   3.476  1.3713 -1.7654 -2.5795
   97SAPC  C210 9558   0.410   1.781   3.689 -0.1416  0.6170 -0.2473
   97SAPC  H10R 9559   0.516   1.770   3.722 -0.0494 -0.5247 -0.8918
   97SAPC  H10S 9560   0.366   1.690   3.736  1.5112 -0.2814 -0.3687
   97SAPC  C211 9561   0.346   1.909   3.730  0.1099 -0.2852 -0.2292
   97SAPC  H11R 9562   0.298   1.973   3.655  0.7634  1.7685  1.0070
   97SAPC  C212 9563   0.312   1.940   3.860 -0.7981 -0.3362 -0.6161
   97SAPC  H12R 9564   0.280   2.045   3.870  0.0302  0.1519 -2.5013
   97SAPC  C213 9565   0.342   1.854   3.981 -0.2166  0.3226 -0.3129
   97SAPC  H13R 9566   0.371   1.752   3.948  0.7546  0.8203 -1.0361
   97SAPC  H13S 9567   0.249   1.823   4.033  0.1389  1.7766  1.2929
   97SAPC  C214 9568   0.436   1.907   4.085  0.9497 -0.5573 -0.0503
   97SAPC  H14R 9569   0.523   1.943   4.028  0.7576  0.9906  0.5716
   97SAPC  C215 9570   0.413   1.941   4.221  0.5787 -0.1794  0.3625
   97SAPC  H15R 9571   0.491   1.985   4.285  1.0744  0.3546 -0.5712
   97SAPC  C216 9572   0.278   1.906   4.277 -0.4662 -0.3460 -0.0994
   97SAPC  H16R 9573   0.233   1.815   4.231  0.8515 -0.9407 -0.2608
   97SAPC  H16S 9574   0.202   1.985   4.259 -1.2705 -1.5710 -2.5709
   97SAPC  C217 9575   0.294   1.873   4.425 -0.0670  0.0673  0.1538
   97SAPC  H17R 9576   0.350   1.778   4.438 -2.2979 -1.3791 -0.1540
   97SAPC  H17S 9577   0.199   1.831   4.466  0.8941 -1.0566  1.3457
   97SAPC  C218 9578   0.333   1.992   4.508  0.0655 -0.3806 -0.2209
   97SAPC  H18R 9579   0.248   2.060   4.490 -0.2583 -1.2345 -2.1376
   97SAPC  H18S 9580   0.426   2.043   4.474  0.5483 -0.9716  0.1741
   97SAPC  C219 9581   0.345   1.949   4.657 -0.1184 -0.4790  0.4067
   97SAPC  H19R 9582   0.435   1.884   4.659  1.4963  1.6713  0.8179
   97SAPC  H19S 9583   0.258   1.886   4.686 -0.4908 -0.2893 -0.2485
   97SAPC  C220 9584   0.368   2.068   4.757  0.0081  0.3344 -0.5110
   97SAPC  H20R 9585   0.453   2.132   4.724  0.0783  0.1255 -0.7347
   97SAPC  H20S 9586   0.388   2.028   4.859 -1.7087 -0.4636 -0.4493
   97SAPC  H20T 9587   0.285   2.142   4.768  1.4863  1.9813  0.0349
   97SAPC   C33 9588   0.189   0.860   3.632  0.9213 -0.0804 -0.4634
   97SAPC   H3X 9589   0.198   0.832   3.739  0.0743 -0.4586 -0.4792
   97SAPC   H3Y 9590   0.081   0.837   3.617  0.2209  1.5391  1.6025
   97SAPC   C34 9591   0.200   1.009   3.604  0.5134 -0.6122 -0.2581
   97SAPC   H4X 9592   0.125   1.070   3.658  0.2322 -1.3880  0.2342
   97SAPC   H4Y 9593   0.192   1.019   3.494 -0.4807  0.2996 -0.1236
   97SAPC   C35 9594   0.341   1.064   3.639  0.2589  0.4439 -0.4273
   97SAPC   H5X 9595   0.419   1.018   3.575  0.5068  0.3657 -0.0655
   97SAPC   H5Y 9596   0.354   1.029   3.743  1.3440 -0.7297 -0.9448
   97SAPC   C36 9597   0.345   1.213   3.645 -0.0593  0.0920 -0.5602
   97SAPC   H6X 9598   0.295   1.249   3.553  1.1261 -0.7969 -1.5865
   97SAPC   H6Y 9599   0.450   1.249   3.638 -0.0675  0.0243 -1.0300
   97SAPC   C37 9600   0.264   1.275   3.762 -0.4921  0.0160 -0.2645
   97SAPC   H7X 9601   0.313   1.254   3.859  2.1280 -2.6795 -1.9907
   97SAPC   H7Y 9602   0.160   1.237   3.764 -1.0324  1.4572  1.4065
   97SAPC   C38 9603   0.255   1.434   3.748 -0.0404  1.0919 -0.2015
   97SAPC   H8X 9604   0.214   1.471   3.651 -0.7332 -0.0510 -0.3684
   97SAPC   H8Y 9605   0.360   1.469   3.758  0.6693 -0.3789 -1.9820
   97SAPC   C39 9606   0.162   1.496   3.856 -0.9446  0.1995 -0.2999
   97SAPC   H9X 9607   0.072   1.431   3.866 -1.4138  1.0851  1.7051
   97SAPC   H9Y 9608   0.143   1.603   3.832  1.6804  0.4784 -1.5120
   97SAPC  C310 9609   0.240   1.492   3.988 -0.6965  0.2779 -0.0927
   97SAPC  H10X 9610   0.326   1.560   3.970 -0.9402  0.8579  0.8756
   97SAPC  H10Y 9611   0.270   1.386   4.006 -1.4919  0.1093  0.2428
   97SAPC  C311 9612   0.157   1.541   4.107 -0.0991  0.3639 -0.0295
   97SAPC  H11X 9613   0.061   1.484   4.105  0.1404 -0.1036  0.9460
   97SAPC  H11Y 9614   0.115   1.643   4.089  0.8261  0.9757  1.1479
   97SAPC  C312 9615   0.196   1.528   4.250 -0.0349  0.3256  0.3493
   97SAPC  H12X 9616   0.102   1.546   4.307 -1.6589 -3.5153 -0.7720
   97SAPC  H12Y 9617   0.277   1.599   4.279  3.0043 -0.9001 -4.0824
   97SAPC  C313 9618   0.253   1.393   4.287  0.8546 -1.1452 -0.2838
   97SAPC  H13X 9619   0.336   1.369   4.218  2.3869  0.8455  0.7536
   97SAPC  H13Y 9620   0.179   1.315   4.260 -0.5187  0.4100 -1.1400
   97SAPC  C314 9621   0.294   1.382   4.432  0.5846 -0.4020  0.0064
   97SAPC  H14X 9622   0.215   1.432   4.491 -0.6707 -0.0738 -1.8598
   97SAPC  H14Y 9623   0.383   1.447   4.444  1.5281 -1.0956 -2.6635
   97SAPC  C315 9624   0.334   1.242   4.486 -0.4218  0.1245  0.3086
   97SAPC  H15X 9625   0.384   1.257   4.584  0.1014  1.1351 -0.0983
   97SAPC  H15Y 9626   0.403   1.193   4.415 -2.6991 -2.5706 -0.2378
   97SAPC  C316 9627   0.209   1.148   4.491 -0.5229 -0.0234 -0.8729
   97SAPC  H16X 9628   0.160   1.155   4.391 -2.0334  0.4793 -0.1247
   97SAPC  H16Y 9629   0.141   1.192   4.567  2.3422 -0.5196  2.1997
   97SAPC  C317 9630   0.239   1.005   4.532  0.1061  0.0586  0.2190
   97SAPC  H17X 9631   0.274   0.999   4.637 -1.4139 -1.6263  0.6862
   97SAPC  H17Y 9632   0.319   0.959   4.470  2.9201  0.6669  3.1604
   97SAPC  C318 9633   0.110   0.919   4.522  0.7434 -0.2821  0.0235
   97SAPC  H18X 9634   0.019   0.964   4.565  0.5662 -0.2260 -0.4056
   97SAPC  H18Y 9635   0.122   0.820   4.572 -0.2571 -0.7649 -0.6609
   97SAPC  H18Z 9636   0.087   0.919   4.413 -0.5485 -0.0863  0.2824
   98SAPC     N 9637   3.117   3.755   2.271 -0.0268 -0.7139 -0.3655
   98SAPC   C12 9638   3.190   3.888   2.300  0.2436  0.4386  0.1526
   98SAPC  H12A 9639   3.195   3.947   2.210  1.0616  2.5243  1.4838
   98SAPC  H12B 9640   3.292   3.860   2.324  0.1079  0.6253  0.9782
   98SAPC   C13 9641   3.194   3.663   2.184 -0.6355 -0.5398  0.6019
   98SAPC  H13A 9642   3.138   3.578   2.150  0.8499 -1.3520  0.1060
   98SAPC  H13B 9643   3.233   3.712   2.096  3.6897 -1.8180  1.5800
   98SAPC  H13C 9644   3.286   3.629   2.229  0.2629 -0.5806 -1.1672
   98SAPC   C14 9645   3.074   3.701   2.402 -0.6647 -0.1098  0.1308
   98SAPC  H14A 9646   3.022   3.607   2.387 -0.1495 -0.1973 -1.3063
   98SAPC  H14B 9647   3.158   3.674   2.464  0.1862 -0.2054 -1.0347
   98SAPC  H14C 9648   3.020   3.772   2.462 -0.8925  0.3373 -0.5853
   98SAPC   C15 9649   2.991   3.782   2.200 -0.2908 -0.3551  0.1022
   98SAPC  H15A 9650   2.946   3.686   2.180 -0.1338 -0.2304 -0.9245
   98SAPC  H15B 9651   2.921   3.845   2.253 -1.5014 -0.6922 -1.0179
   98SAPC  H15C 9652   3.010   3.819   2.100 -1.9858 -1.8254 -0.8408
   98SAPC   C11 9653   3.130   3.980   2.402  0.4293 -0.2590 -1.3481
   98SAPC  H11A 9654   3.125   3.935   2.503 -1.7490  2.7014  0.0119
   98SAPC  H11B 9655   3.027   4.012   2.377  0.2808  0.4442  0.0389
   98SAPC     P 9656   3.349   4.103   2.456 -0.1497  0.0083 -0.3507
   98SAPC   O13 9657   3.416   3.969   2.447  0.1208  0.0983  0.2501
   98SAPC   O14 9658   3.422   4.213   2.391  0.0821 -0.1139  0.4366
   98SAPC   O12 9659   3.206   4.102   2.400  0.0647 -0.1162  0.0316
   98SAPC   O11 9660   3.330   4.137   2.609  0.1366  0.6741 -0.0867
   98SAPC    C1 9661   3.236   4.248   2.636  0.7554 -0.2334  0.2451
   98SAPC    HA 9662   3.252   4.330   2.563  0.3038 -1.8000 -1.7224
   98SAPC    HB 9663   3.130   4.214   2.641  0.3208  1.0979  0.5360
   98SAPC    C2 9664   3.274   4.302   2.776 -0.1316  0.3116  0.3430
   98SAPC    HS 9665   3.376   4.341   2.757 -0.4044  1.1964  0.6478
   98SAPC   O21 9666   3.276   4.205   2.883 -0.2473 -0.6743  0.0261
   98SAPC   C21 9667   3.371   4.226   2.968  0.4420  0.5746 -0.5735
   98SAPC   O22 9668   3.468   4.302   2.955 -0.3427  0.5908 -0.3421
   98SAPC   C22 9669   3.350   4.133   3.092  0.1455 -0.2742  0.3909
   98SAPC   H2R 9670   3.250   4.151   3.136 -0.8441 -2.9930 -0.5631
   98SAPC   H2S 9671   3.355   4.027   3.058 -1.1262 -0.1544 -0.2411
   98SAPC    C3 9672   3.194   4.439   2.811 -0.6832  0.5969  0.1006
   98SAPC    HX 9673   3.088   4.413   2.830 -0.6371 -1.6647 -2.0429
   98SAPC    HY 9674   3.194   4.500   2.718  1.4896  0.0229 -0.3254
   98SAPC   O31 9675   3.254   4.503   2.919 -0.3905 -0.0172 -0.0020
   98SAPC   C31 9676   3.348   4.596   2.907  0.7151 -0.1566  0.1666
   98SAPC   O32 9677   3.401   4.641   2.806 -0.4061 -0.6398 -0.5268
   98SAPC   C32 9678   3.393   4.632   3.047  0.3536  0.0044 -0.6605
   98SAPC   H2X 9679   3.504   4.625   3.052  0.7718  3.5251 -2.0290
   98SAPC   H2Y 9680   3.342   4.560   3.115  0.6909  1.0777  0.7639
   98SAPC   C23 9681   3.467   4.142   3.196 -0.2583  0.2739  0.0928
   98SAPC   H3R 9682   3.561   4.135   3.139  0.8791  2.0970  1.6155
   98SAPC   H3S 9683   3.464   4.054   3.264 -0.9506 -0.1226 -0.4376
   98SAPC   C24 9684   3.471   4.280   3.270 -0.3256 -0.3423 -0.0562
   98SAPC   H4R 9685   3.492   4.363   3.200  2.5830 -1.4249 -0.5751
   98SAPC   H4S 9686   3.554   4.273   3.344 -0.2554  2.7215  0.3163
   98SAPC   C25 9687   3.348   4.310   3.349  0.6870 -0.2246 -0.5495
   98SAPC   H5R 9688   3.267   4.367   3.302 -0.3182 -0.1181  1.2055
   98SAPC   C26 9689   3.320   4.279   3.481  0.0607 -0.0525  0.0761
   98SAPC   H6R 9690   3.221   4.311   3.515 -1.2666  0.1552 -3.5518
   98SAPC   C27 9691   3.404   4.203   3.582 -0.3100  0.2339  0.2105
   98SAPC   H7R 9692   3.485   4.144   3.536 -0.0028  0.5144  0.3896
   98SAPC   H7S 9693   3.340   4.121   3.622  1.1193 -0.7553  0.5261
   98SAPC   C28 9694   3.479   4.304   3.669 -0.1105 -0.8295 -0.4091
   98SAPC   H8R 9695   3.516   4.388   3.608  0.0741 -0.1785  0.5604
   98SAPC   C29 9696   3.492   4.298   3.804 -0.0203 -0.3804  0.4247
   98SAPC   H9R 9697   3.542   4.384   3.852 -0.6036 -0.7487  1.7390
   98SAPC  C210 9698   3.439   4.190   3.892  0.5809  0.3146 -0.5462
   98SAPC  H10R 9699   3.522   4.143   3.949  1.4179  1.8362 -0.4587
   98SAPC  H10S 9700   3.382   4.112   3.837 -0.2647 -0.1235  0.8828
   98SAPC  C211 9701   3.344   4.246   3.993 -0.3578 -0.6819  0.4306
   98SAPC  H11R 9702   3.243   4.248   3.951  0.4470  2.4000 -1.6402
   98SAPC  C212 9703   3.372   4.322   4.106  0.0816  0.0859  0.7033
   98SAPC  H12R 9704   3.285   4.344   4.170 -1.5887 -0.9905 -1.1110
   98SAPC  C213 9705   3.506   4.336   4.171 -0.4209  0.0200 -0.1941
   98SAPC  H13R 9706   3.508   4.441   4.208  1.0894 -0.3494  0.8784
   98SAPC  H13S 9707   3.583   4.332   4.091 -0.7497  3.6084 -0.8716
   98SAPC  C214 9708   3.538   4.237   4.279 -0.2190 -0.0717  0.1345
   98SAPC  H14R 9709   3.516   4.132   4.252 -1.3928 -0.1784  1.3683
   98SAPC  C215 9710   3.593   4.269   4.396 -0.2980  0.4448  0.2631
   98SAPC  H15R 9711   3.603   4.183   4.464 -0.4719 -1.4701 -1.9959
   98SAPC  C216 9712   3.631   4.405   4.455 -0.3519  0.5423  0.6182
   98SAPC  H16R 9713   3.579   4.488   4.403 -1.9622 -0.3504  0.7281
   98SAPC  H16S 9714   3.740   4.418   4.439 -0.6988  1.2241 -1.4757
   98SAPC  C217 9715   3.614   4.401   4.603 -0.8815 -0.3447 -0.7432
   98SAPC  H17R 9716   3.679   4.479   4.648  2.3148 -3.6929  0.9853
   98SAPC  H17S 9717   3.641   4.306   4.653 -1.1812 -0.4165 -0.7179
   98SAPC  C218 9718   3.462   4.428   4.638 -0.6313  0.1749  0.6163
   98SAPC  H18R 9719   3.404   4.356   4.576  1.7892 -0.6380 -0.8420
   98SAPC  H18S 9720   3.430   4.528   4.603  1.4787  0.1944 -1.4905
   98SAPC  C219 9721   3.438   4.412   4.789 -0.2504  0.5568 -0.1827
   98SAPC  H19R 9722   3.521   4.466   4.839  0.5857 -2.2047  1.6661
   98SAPC  H19S 9723   3.457   4.308   4.823  2.3258 -0.1012 -3.1125
   98SAPC  C220 9724   3.299   4.466   4.828 -0.7642 -0.6980 -0.2634
   98SAPC  H20R 9725   3.223   4.411   4.770 -0.4496 -1.0324 -0.3628
   98SAPC  H20S 9726   3.290   4.575   4.811  0.7802 -0.5627 -0.4102
   98SAPC  H20T 9727   3.281   4.441   4.935 -0.9662  0.1619 -0.0852
   98SAPC   C33 9728   3.363   4.781   3.090  0.4305 -0.2683  0.3885
   98SAPC   H3X 9729   3.255   4.808   3.092  0.3871 -0.3353 -0.4362
   98SAPC   H3Y 9730   3.415   4.843   3.014  1.3112 -0.8954  0.4695
   98SAPC   C34 9731   3.423   4.825   3.223 -0.5476 -0.4981  0.2530
   98SAPC   H4X 9732   3.415   4.935   3.241  2.9111 -0.3024  1.4387
   98SAPC   H4Y 9733   3.532   4.810   3.208 -0.1998  1.0559  0.9742
   98SAPC   C35 9734   3.378   4.752   3.352  0.0119  1.0085 -0.1315
   98SAPC   H5X 9735   3.390   4.642   3.341  1.6823  1.0857  0.5424
   98SAPC   H5Y 9736   3.273   4.786   3.362 -0.2493  0.0611  0.4433
   98SAPC   C36 9737   3.448   4.793   3.486  0.0457 -0.3480 -0.1602
   98SAPC   H6X 9738   3.451   4.905   3.483 -1.9474 -0.2077  1.2201
   98SAPC   H6Y 9739   3.553   4.757   3.488  0.8621  1.7650 -1.1951
   98SAPC   C37 9740   3.382   4.754   3.619 -0.1969 -0.1557  0.0866
   98SAPC   H7X 9741   3.369   4.644   3.632  0.4706 -0.0156  2.5202
   98SAPC   H7Y 9742   3.279   4.795   3.615 -1.7116 -3.6766 -1.4681
   98SAPC   C38 9743   3.468   4.791   3.742 -0.3385  0.0917  0.3030
   98SAPC   H8X 9744   3.484   4.901   3.735  1.0298 -0.1734 -2.4375
   98SAPC   H8Y 9745   3.569   4.751   3.719 -0.8682 -2.6574  2.3046
   98SAPC   C39 9746   3.417   4.752   3.878  0.2215  0.2260  0.2445
   98SAPC   H9X 9747   3.386   4.646   3.882  0.0959  0.2606  0.1873
   98SAPC   H9Y 9748   3.335   4.827   3.883  0.5472  1.1093 -4.1005
   98SAPC  C310 9749   3.522   4.762   3.997  0.4500 -0.9411  0.6617
   98SAPC  H10X 9750   3.625   4.758   3.957 -0.1752  4.3650 -2.5940
   98SAPC  H10Y 9751   3.493   4.675   4.058 -2.2319 -0.2533  0.5246
   98SAPC  C311 9752   3.504   4.894   4.078  0.5435  0.4600 -0.3124
   98SAPC  H11X 9753   3.395   4.887   4.100  0.5748 -2.1851 -0.6484
   98SAPC  H11Y 9754   3.526   4.983   4.015  1.3695 -0.3020 -1.1157
   98SAPC  C312 9755   3.578   4.880   4.211 -0.4378 -0.3637  0.2699
   98SAPC  H12X 9756   3.686   4.855   4.199 -0.3752 -0.4136  0.8796
   98SAPC  H12Y 9757   3.541   4.790   4.265 -0.5570  0.1432  1.0454
   98SAPC  C313 9758   3.560   5.006   4.293 -0.0914 -0.0476  0.1529
   98SAPC  H13X 9759   3.481   5.073   4.253 -0.3557  0.1423  0.9771
   98SAPC  H13Y 9760   3.662   5.051   4.281  0.9968 -2.1670  0.9294
   98SAPC  C314 9761   3.528   4.973   4.436 -0.3942  0.3074  0.1518
   98SAPC  H14X 9762   3.528   5.068   4.492  0.1269 -0.1435  0.9325
   98SAPC  H14Y 9763   3.600   4.908   4.491 -0.3746  0.4150  0.2541
   98SAPC  C315 9764   3.384   4.920   4.452 -0.0259  0.7083  0.7987
   98SAPC  H15X 9765   3.377   4.814   4.420 -0.8357  1.1445 -0.5598
   98SAPC  H15Y 9766   3.305   4.971   4.392  0.2572  1.0689  0.7263
   98SAPC  C316 9767   3.338   4.934   4.600 -1.4417 -0.6789  0.0646
   98SAPC  H16X 9768   3.233   4.900   4.608 -1.0630 -1.5635  1.9636
   98SAPC  H16Y 9769   3.343   5.041   4.629  1.2982 -0.3216 -1.4362
   98SAPC  C317 9770   3.424   4.854   4.696  0.1130  0.3685 -0.6228
   98SAPC  H17X 9771   3.528   4.892   4.688  0.4470 -0.6437 -1.2285
   98SAPC  H17Y 9772   3.425   4.747   4.665  3.4935  0.1639 -0.2082
   98SAPC  C318 9773   3.363   4.854   4.841  1.0646 -0.4133 -0.4227
   98SAPC  H18X 9774   3.414   4.798   4.922 -2.4453 -2.2062  0.7541
   98SAPC  H18Y 9775   3.257   4.823   4.834  0.8608  0.5798 -2.4496
   98SAPC  H18Z 9776   3.371   4.959   4.877  1.4243 -0.3950 -0.5488
   99SAPC     N 9777   6.399   5.913   2.853 -0.2697  0.0708 -0.1338
   99SAPC   C12 9778   6.433   6.018   2.955  0.8597  0.0908 -0.4699
   99SAPC  H12A 9779   6.344   6.066   2.993  1.2592  1.2387 -0.9370
   99SAPC  H12B 9780   6.471   6.099   2.895  1.9211  0.1924  0.3059
   99SAPC   C13 9781   6.367   5.787   2.918  0.8264  0.9439  0.3377
   99SAPC  H13A 9782   6.286   5.795   2.990 -0.3646 -0.9178 -0.6981
   99SAPC  H13B 9783   6.327   5.715   2.848 -2.7037  2.0606  0.9711
   99SAPC  H13C 9784   6.450   5.742   2.971 -0.9059 -0.9003  1.6608
   99SAPC   C14 9785   6.287   5.961   2.768 -0.5211 -0.0863  0.2921
   99SAPC  H14A 9786   6.243   5.888   2.700  2.2138 -0.8260 -0.8070
   99SAPC  H14B 9787   6.213   6.010   2.829  0.2032  1.8113 -0.2999
   99SAPC  H14C 9788   6.304   6.049   2.709 -2.0690  1.3194  1.8380
   99SAPC   C15 9789   6.515   5.889   2.762 -0.5544  0.2197 -0.1093
   99SAPC  H15A 9790   6.518   5.794   2.710 -5.2134 -1.4173  2.0674
   99SAPC  H15B 9791   6.518   5.967   2.687  1.9305  0.2631 -0.0557
   99SAPC  H15C 9792   6.607   5.894   2.818  0.0351  0.8034 -1.0977
   99SAPC   C11 9793   6.539   5.989   3.065 -0.3743 -0.0485 -0.3317
   99SAPC  H11A 9794   6.519   5.890   3.112 -0.6496 -0.3097 -0.9924
   99SAPC  H11B 9795   6.522   6.068   3.142 -1.8855  0.5384 -1.2169
   99SAPC     P 9796   6.730   6.147   2.990 -0.3279  0.0419 -0.1737
   99SAPC   O13 9797   6.804   6.150   2.861  0.2710 -0.0457  0.0903
   99SAPC   O14 9798   6.618   6.242   3.022  0.6775 -0.0158 -0.0870
   99SAPC   O12 9799   6.672   5.996   3.009  0.1355 -0.4683 -0.3367
   99SAPC   O11 9800   6.833   6.168   3.107 -0.0385 -0.7034 -0.7222
   99SAPC    C1 9801   6.782   6.204   3.242 -0.1746 -0.7139  0.6125
   99SAPC    HA 9802   6.675   6.183   3.263 -1.7142  1.8164 -3.5775
   99SAPC    HB 9803   6.847   6.163   3.323  0.7968  2.3703  1.5150
   99SAPC    C2 9804   6.805   6.360   3.258 -0.1418 -0.0123  0.3082
   99SAPC    HS 9805   6.770   6.402   3.161  1.7963  2.6186  0.6235
   99SAPC   O21 9806   6.948   6.384   3.272  0.1313 -0.2696  0.2968
   99SAPC   C21 9807   6.992   6.506   3.240 -0.2993 -0.3909  0.3022
   99SAPC   O22 9808   6.921   6.600   3.204  0.4018  0.4269 -0.8659
   99SAPC   C22 9809   7.144   6.510   3.231  0.0686 -0.6153 -0.0513
   99SAPC   H2R 9810   7.173   6.404   3.211  1.6932 -0.6895  2.2703
   99SAPC   H2S 9811   7.174   6.579   3.149 -1.0881 -0.1244 -0.0691
   99SAPC    C3 9812   6.727   6.416   3.377  0.1217 -0.0914 -0.6184
   99SAPC    HX 9813   6.617   6.408   3.366  0.0554  0.6838 -0.6003
   99SAPC    HY 9814   6.752   6.524   3.381 -0.2989 -0.0370  1.4227
   99SAPC   O31 9815   6.761   6.353   3.498  0.0032  0.2952  0.7535
   99SAPC   C31 9816   6.732   6.424   3.610  0.4328 -0.3576  0.2122
   99SAPC   O32 9817   6.654   6.518   3.613  0.7730  0.0716 -0.0179
   99SAPC   C32 9818   6.820   6.369   3.721  0.2500 -0.1137  0.1823
   99SAPC   H2X 9819   6.916   6.418   3.695 -1.2396  2.4710 -0.8402
   99SAPC   H2Y 9820   6.828   6.259   3.708  0.6376 -0.2386  1.3875
   99SAPC   C23 9821   7.214   6.569   3.355  0.3246  0.3850 -0.1869
   99SAPC   H3R 9822   7.210   6.680   3.346 -0.3527  0.5315  1.6058
   99SAPC   H3S 9823   7.322   6.541   3.354  0.2786  0.2040 -1.1910
   99SAPC   C24 9824   7.147   6.521   3.488  0.4444 -0.1425  0.5578
   99SAPC   H4R 9825   7.047   6.569   3.488  1.1182  1.3099 -0.3818
   99SAPC   H4S 9826   7.200   6.572   3.571  0.7587 -0.7422  0.7347
   99SAPC   C25 9827   7.150   6.371   3.510  0.2484  0.3200  0.0264
   99SAPC   H5R 9828   7.120   6.307   3.426 -0.1495  0.5510 -0.0088
   99SAPC   C26 9829   7.201   6.312   3.625 -0.5608 -0.7580  0.3948
   99SAPC   H6R 9830   7.218   6.203   3.627  0.6614 -0.5774  0.8621
   99SAPC   C27 9831   7.256   6.389   3.746  0.0247  0.3100  0.2781
   99SAPC   H7R 9832   7.178   6.465   3.765 -2.7917 -2.3751  0.3239
   99SAPC   H7S 9833   7.355   6.437   3.728  0.3822 -0.0859  1.0853
   99SAPC   C28 9834   7.262   6.293   3.862  0.4565 -0.4245 -1.1311
   99SAPC   H8R 9835   7.170   6.243   3.893  0.9185  0.6570  2.4307
   99SAPC   C29 9836   7.368   6.272   3.941  0.1021 -0.5569 -0.1094
   99SAPC   H9R 9837   7.366   6.200   4.024  3.5631  0.0057  0.6263
   99SAPC  C210 9838   7.512   6.321   3.923  0.0636 -0.2920 -0.2483
   99SAPC  H10R 9839   7.533   6.375   3.829  0.0337  0.7745  0.3450
   99SAPC  H10S 9840   7.565   6.225   3.906  1.1884  0.1691  0.5131
   99SAPC  C211 9841   7.563   6.417   4.033 -0.0632  0.5574  0.2382
   99SAPC  H11R 9842   7.622   6.370   4.114 -0.6774  2.2192  1.7215
   99SAPC  C212 9843   7.555   6.554   4.027 -0.2634  0.2767  0.0551
   99SAPC  H12R 9844   7.594   6.614   4.111 -1.5603  1.1297  0.0812
   99SAPC  C213 9845   7.474   6.628   3.920 -0.0924 -0.0956 -0.5888
   99SAPC  H13R 9846   7.377   6.652   3.970 -0.1858 -1.3716 -0.1285
   99SAPC  H13S 9847   7.447   6.561   3.836 -0.1355 -1.0913  0.1943
   99SAPC  C214 9848   7.551   6.751   3.878  0.3387  0.5309 -0.1069
   99SAPC  H14R 9849   7.600   6.806   3.960  1.0048  1.8868 -1.3637
   99SAPC  C215 9850   7.565   6.790   3.753 -0.7262 -0.2283 -0.2169
   99SAPC  H15R 9851   7.627   6.881   3.744  1.1932 -1.3534  0.9709
   99SAPC  C216 9852   7.513   6.726   3.624 -0.2911  0.2783  0.0490
   99SAPC  H16R 9853   7.509   6.794   3.536  2.9092 -2.2055 -2.3137
   99SAPC  H16S 9854   7.416   6.675   3.639 -0.1371  0.6217  2.7493
   99SAPC  C217 9855   7.615   6.619   3.579 -1.1848  0.2166 -0.2092
   99SAPC  H17R 9856   7.640   6.557   3.668  0.7602 -1.4034 -1.7735
   99SAPC  H17S 9857   7.709   6.660   3.538 -1.1500  0.6991  0.3314
   99SAPC  C218 9858   7.561   6.514   3.485 -0.5625  0.1177  0.1277
   99SAPC  H18R 9859   7.550   6.561   3.385  1.3938  0.4545  0.0194
   99SAPC  H18S 9860   7.457   6.486   3.510 -1.0496  0.5341 -1.3105
   99SAPC  C219 9861   7.638   6.380   3.457  0.2270 -0.2882 -0.4015
   99SAPC  H19R 9862   7.741   6.410   3.428  0.3618  1.2007  1.4495
   99SAPC  H19S 9863   7.588   6.337   3.367 -0.4030 -0.0338 -0.1810
   99SAPC  C220 9864   7.649   6.277   3.565  0.1574  0.0023  0.2637
   99SAPC  H20R 9865   7.737   6.210   3.561 -0.1398 -0.3651 -0.2360
   99SAPC  H20S 9866   7.557   6.215   3.569  0.0905  0.1832  2.0152
   99SAPC  H20T 9867   7.659   6.335   3.659  2.1201  0.2841 -0.0656
   99SAPC   C33 9868   6.775   6.402   3.858 -0.3093 -0.2001 -0.6113
   99SAPC   H3X 9869   6.684   6.345   3.886  0.0645  0.1366  1.5047
   99SAPC   H3Y 9870   6.758   6.509   3.881  0.7411 -0.1979  0.2239
   99SAPC   C34 9871   6.878   6.358   3.962  0.2137 -0.8188  0.4271
   99SAPC   H4X 9872   6.981   6.393   3.937 -0.5343  0.2918 -1.2420
   99SAPC   H4Y 9873   6.880   6.247   3.961 -3.9531 -1.1497  3.5929
   99SAPC   C35 9874   6.834   6.400   4.098 -0.2119 -0.6602  0.4511
   99SAPC   H5X 9875   6.748   6.345   4.142  0.8898 -1.2942  1.9042
   99SAPC   H5Y 9876   6.787   6.498   4.079 -2.1735 -1.5160  0.6049
   99SAPC   C36 9877   6.938   6.417   4.203 -0.7893 -0.5386  0.5859
   99SAPC   H6X 9878   6.935   6.312   4.238 -4.7032 -1.2506 -1.3811
   99SAPC   H6Y 9879   6.920   6.486   4.288  0.6253 -0.2024  0.6518
   99SAPC   C37 9880   7.083   6.454   4.154  0.4433 -0.3692 -0.4855
   99SAPC   H7X 9881   7.093   6.541   4.086 -0.1728 -3.0987 -4.3615
   99SAPC   H7Y 9882   7.119   6.374   4.087  0.6353  0.1627 -1.0322
   99SAPC   C38 9883   7.183   6.465   4.268 -0.5033  1.2967  0.5718
   99SAPC   H8X 9884   7.176   6.568   4.309 -3.4628  0.6203  2.0736
   99SAPC   H8Y 9885   7.283   6.471   4.220 -0.7552  0.3660 -0.0931
   99SAPC   C39 9886   7.187   6.356   4.379 -0.3215 -0.2319  0.6309
   99SAPC   H9X 9887   7.178   6.256   4.333 -1.3855  0.5473 -0.9232
   99SAPC   H9Y 9888   7.097   6.355   4.444 -2.7801  0.8400 -2.5092
   99SAPC  C310 9889   7.315   6.362   4.460  0.3059 -0.4326 -0.2585
   99SAPC  H10X 9890   7.314   6.437   4.542 -1.2303 -0.9686  0.2503
   99SAPC  H10Y 9891   7.390   6.393   4.384 -0.0971 -2.7449 -1.7308
   99SAPC  C311 9892   7.364   6.240   4.533 -0.7948  0.4124 -0.7556
   99SAPC  H11X 9893   7.380   6.162   4.457  0.0963 -0.2629  0.0997
   99SAPC  H11Y 9894   7.298   6.199   4.613  2.6442 -3.2028  0.5865
   99SAPC  C312 9895   7.491   6.267   4.608 -0.0216 -0.1759  0.2268
   99SAPC  H12X 9896   7.466   6.345   4.683 -2.9215  0.0502 -0.8277
   99SAPC  H12Y 9897   7.570   6.302   4.537 -0.8343 -1.4618 -1.3884
   99SAPC  C313 9898   7.558   6.144   4.675  0.1891 -0.5627 -0.2841
   99SAPC  H13X 9899   7.588   6.084   4.587 -1.7884 -2.5273  0.2767
   99SAPC  H13Y 9900   7.486   6.092   4.742  0.1148  0.1792  0.2260
   99SAPC  C314 9901   7.680   6.177   4.754 -0.6796 -0.6463  0.1940
   99SAPC  H14X 9902   7.679   6.245   4.841 -0.9783  0.8293 -0.9335
   99SAPC  H14Y 9903   7.762   6.217   4.691 -1.3608 -0.9655 -0.9191
   99SAPC  C315 9904   7.732   6.037   4.804  0.1207  0.0970  0.6121
   99SAPC  H15X 9905   7.753   5.978   4.712  1.4391  0.2606  0.7855
   99SAPC  H15Y 9906   7.646   5.990   4.856  0.2175 -0.7476  0.0181
   99SAPC  C316 9907   7.857   6.039   4.894 -0.2522  0.7569 -0.3708
   99SAPC  H16X 9908   7.839   6.095   4.988 -1.6625  0.5614 -0.5017
   99SAPC  H16Y 9909   7.922   6.116   4.847 -2.3350  3.6186  1.1154
   99SAPC  C317 9910   7.931   5.906   4.916 -0.5862 -0.2006  0.5590
   99SAPC  H17X 9911   7.934   5.866   4.812  0.6532  0.1164  0.4623
   99SAPC  H17Y 9912   7.871   5.838   4.980  0.9701 -0.8511  1.3720
   99SAPC  C318 9913   8.072   5.924   4.971 -0.0849 -0.4711 -0.3129
   99SAPC  H18X 9914   8.108   5.823   4.996  0.5861  0.3608  2.3604
   99SAPC  H18Y 9915   8.059   5.976   5.069 -0.3741  0.4575 -0.8235
   99SAPC  H18Z 9916   8.132   5.985   4.901  0.2944  1.4626  1.5826
  100SAPC     N 9917   5.187   6.640   2.316  0.2191 -0.1403  0.1070
  100SAPC   C12 9918   5.275   6.743   2.380 -0.3075 -0.1417 -0.1582
  100SAPC  H12A 9919   5.241   6.838   2.342 -2.6301  0.1835  2.3999
  100SAPC  H12B 9920   5.375   6.739   2.339 -0.4549  0.7958 -0.6477
  100SAPC   C13 9921   5.042   6.696   2.304  0.6776 -0.1986 -0.3004
  100SAPC  H13A 9922   4.968   6.617   2.306  0.2685  0.1878 -0.0825
  100SAPC  H13B 9923   5.021   6.771   2.379  0.1688  0.2730 -0.9053
  100SAPC  H13C 9924   5.036   6.756   2.215 -2.2402  0.4304  0.2315
  100SAPC   C14 9925   5.227   6.609   2.178  0.4001 -0.2893 -0.1778
  100SAPC  H14A 9926   5.171   6.526   2.138  1.1493 -0.4326 -0.9543
  100SAPC  H14B 9927   5.205   6.692   2.111 -0.1983 -0.1106  0.2312
  100SAPC  H14C 9928   5.333   6.588   2.187  0.7111  1.8541  2.3148
  100SAPC   C15 9929   5.188   6.520   2.398  0.0786 -0.4957  0.1078
  100SAPC  H15A 9930   5.126   6.438   2.364 -0.8818 -1.2695  3.3424
  100SAPC  H15B 9931   5.284   6.472   2.408 -0.1049 -0.7615  0.6145
  100SAPC  H15C 9932   5.154   6.541   2.498 -1.5011  0.7735 -0.6494
  100SAPC   C11 9933   5.270   6.759   2.534 -0.5740 -0.2905  0.7703
  100SAPC  H11A 9934   5.165   6.767   2.570 -0.1508  1.5478  1.7247
  100SAPC  H11B 9935   5.317   6.858   2.553 -2.4114  0.8237 -0.1626
  100SAPC     P 9936   5.491   6.653   2.597 -0.5936 -0.1967 -0.0364
  100SAPC   O13 9937   5.549   6.524   2.544  0.7014 -0.4900 -0.4816
  100SAPC   O14 9938   5.545   6.770   2.528  0.7576 -0.2299 -0.2237
  100SAPC   O12 9939   5.339   6.657   2.599  0.4116  0.2850  0.0882
  100SAPC   O11 9940   5.525   6.660   2.747 -0.0830 -0.6225 -0.3440
  100SAPC    C1 9941   5.430   6.636   2.852 -0.6563 -0.5458 -0.0581
  100SAPC    HA 9942   5.371   6.545   2.828 -1.7510  0.2082 -0.2584
  100SAPC    HB 9943   5.494   6.609   2.940  0.5331  0.3218 -0.6282
  100SAPC    C2 9944   5.332   6.758   2.879 -0.4958 -0.2658 -0.1743
  100SAPC    HS 9945   5.251   6.745   2.805 -1.1048 -0.1330  0.4625
  100SAPC   O21 9946   5.392   6.887   2.870 -0.5212 -0.3335  0.6249
  100SAPC   C21 9947   5.305   6.978   2.836 -0.3738 -0.2900  0.4987
  100SAPC   O22 9948   5.196   6.960   2.788  0.0826  0.3589 -0.0750
  100SAPC   C22 9949   5.373   7.109   2.882 -0.2610 -0.3010  0.6719
  100SAPC   H2R 9950   5.483   7.110   2.870 -0.5008  1.0654 -2.7481
  100SAPC   H2S 9951   5.329   7.193   2.824 -0.4831 -0.2678  0.8879
  100SAPC    C3 9952   5.264   6.744   3.019  0.3479 -0.2279 -0.6342
  100SAPC    HX 9953   5.228   6.640   3.033 -1.6685  0.6673  1.4158
  100SAPC    HY 9954   5.175   6.810   3.027  0.3981 -0.2979  0.6475
  100SAPC   O31 9955   5.362   6.778   3.120  0.2843 -0.2233  0.5070
  100SAPC   C31 9956   5.322   6.764   3.243  0.5737  0.3217 -0.3340
  100SAPC   O32 9957   5.209   6.733   3.272  0.1548  0.0371 -0.0489
  100SAPC   C32 9958   5.438   6.773   3.350 -0.5873  0.5847 -0.5161
  100SAPC   H2X 9959   5.521   6.803   3.283 -1.1003 -0.0338 -1.4542
  100SAPC   H2Y 9960   5.455   6.668   3.384  0.3705  0.4586 -1.3311
  100SAPC   C23 9961   5.323   7.130   3.028 -0.8186 -0.2766  0.5088
  100SAPC   H3R 9962   5.372   7.056   3.094  1.8032  0.4618 -0.5149
  100SAPC   H3S 9963   5.214   7.108   3.029 -0.8507 -0.6526 -2.6008
  100SAPC   C24 9964   5.356   7.274   3.077 -0.1485  0.0875  0.0421
  100SAPC   H4R 9965   5.294   7.346   3.020 -1.0450 -1.4890 -1.0349
  100SAPC   H4S 9966   5.460   7.303   3.053 -0.7079  2.6633  0.4531
  100SAPC   C25 9967   5.324   7.288   3.220 -0.6687 -0.2990 -0.2473
  100SAPC   H5R 9968   5.234   7.236   3.254 -0.6369 -0.6117 -0.6341
  100SAPC   C26 9969   5.399   7.359   3.311 -0.0193  0.1537 -0.4310
  100SAPC   H6R 9970   5.365   7.364   3.416 -0.4699 -0.2215 -0.5552
  100SAPC   C27 9971   5.531   7.435   3.296  0.6791 -0.3893 -0.0745
  100SAPC   H7R 9972   5.518   7.531   3.351  0.7659 -0.9511  0.9521
  100SAPC   H7S 9973   5.556   7.457   3.190  0.7470  0.4667  0.1104
  100SAPC   C28 9974   5.643   7.357   3.359 -0.7086  0.5013  0.2534
  100SAPC   H8R 9975   5.685   7.274   3.300  0.2977  0.6216  0.7711
  100SAPC   C29 9976   5.696   7.370   3.481  0.8265 -0.3601  0.3952
  100SAPC   H9R 9977   5.785   7.309   3.500  1.6409  0.2154 -1.3826
  100SAPC  C210 9978   5.655   7.472   3.581 -1.0916  0.9303  0.5924
  100SAPC  H10R 9979   5.646   7.573   3.535  2.0453  1.5628  1.1571
  100SAPC  H10S 9980   5.738   7.493   3.650 -0.4829  0.2144  0.0929
  100SAPC  C211 9981   5.532   7.453   3.658  0.3636 -0.0598 -0.0401
  100SAPC  H11R 9982   5.439   7.465   3.600  1.3872  2.6143 -1.2708
  100SAPC  C212 9983   5.515   7.422   3.789 -0.5036 -0.3130 -0.4171
  100SAPC  H12R 9984   5.417   7.432   3.838  0.9572  1.3327  2.4327
  100SAPC  C213 9985   5.634   7.397   3.886  0.3509  0.5475  0.5500
  100SAPC  H13R 9986   5.724   7.352   3.839  0.6193  0.1792  1.3900
  100SAPC  H13S 9987   5.604   7.316   3.956 -0.2755  0.1094 -0.2071
  100SAPC  C214 9988   5.676   7.527   3.950  0.6470  0.4770  0.6925
  100SAPC  H14R 9989   5.745   7.591   3.893 -1.8434  2.0472 -0.7905
  100SAPC  C215 9990   5.639   7.576   4.071  0.2886  0.3821  0.3812
  100SAPC  H15R 9991   5.670   7.679   4.095  0.0969  0.2947  1.0312
  100SAPC  C216 9992   5.542   7.504   4.162 -0.0054 -0.1225 -0.7002
  100SAPC  H16R 9993   5.579   7.489   4.266 -0.1940 -1.4219 -0.8110
  100SAPC  H16S 9994   5.519   7.402   4.124 -1.0842  0.2473 -1.0621
  100SAPC  C217 9995   5.403   7.569   4.167 -0.4852 -0.0700  0.1990
  100SAPC  H17R 9996   5.371   7.583   4.062  0.8594  0.1769 -0.2059
  100SAPC  H17S 9997   5.408   7.668   4.217  2.5482  1.3299 -2.4585
  100SAPC  C218 9998   5.301   7.487   4.240  0.2712 -0.0162 -0.3860
  100SAPC  H18R 9999   5.302   7.383   4.202 -0.0154  0.2514 -1.1355
  100SAPC  H18S10000   5.202   7.533   4.217 -0.6723 -1.2026  1.1009
  100SAPC  C21910001   5.315   7.475   4.397 -0.5336 -0.2147 -0.1440
  100SAPC  H19R10002   5.383   7.388   4.416 -2.2051 -1.6570 -0.5133
  100SAPC  H19S10003   5.220   7.433   4.435 -1.1095  1.8672  0.8240
  100SAPC  C22010004   5.355   7.596   4.480  0.0865 -0.3715  0.1685
  100SAPC  H20R10005   5.461   7.625   4.464  0.2238 -0.8720  0.1601
  100SAPC  H20S10006   5.338   7.563   4.585  1.3297 -0.9370  0.2068
  100SAPC  H20T10007   5.299   7.689   4.454  2.9174  1.1950 -0.6511
  100SAPC   C3310008   5.401   6.852   3.465 -0.0178 -0.2746 -0.8094
  100SAPC   H3X10009   5.467   6.830   3.552 -0.9267 -2.1603 -0.5558
  100SAPC   H3Y10010   5.295   6.841   3.496  0.0545 -0.1546 -0.5123
  100SAPC   C3410011   5.419   7.005   3.445  0.3849 -0.2507  0.5016
  100SAPC   H4X10012   5.351   7.027   3.360  0.1070  0.0758  0.8011
  100SAPC   H4Y10013   5.521   7.037   3.415  0.1772 -2.6484 -3.3162
  100SAPC   C3510014   5.391   7.084   3.571 -0.0536 -0.5297  0.5195
  100SAPC   H5X10015   5.411   7.189   3.541 -2.3874 -0.3489 -0.6239
  100SAPC   H5Y10016   5.469   7.047   3.641  0.4106 -0.7768 -0.1179
  100SAPC   C3610017   5.250   7.095   3.633  0.1196  0.1948  0.5802
  100SAPC   H6X10018   5.216   6.990   3.644  0.4943  0.1385  1.2755
  100SAPC   H6Y10019   5.183   7.147   3.562  3.5892  1.4402 -2.0764
  100SAPC   C3710020   5.250   7.171   3.769  0.1451 -0.5046 -0.3348
  100SAPC   H7X10021   5.294   7.271   3.748  2.5769 -0.7467  2.9635
  100SAPC   H7Y10022   5.301   7.115   3.850  0.8389 -1.0950 -1.1608
  100SAPC   C3810023   5.104   7.185   3.819  0.2479 -0.1895 -0.9196
  100SAPC   H8X10024   5.052   7.093   3.853 -2.8261  2.2330  1.6245
  100SAPC   H8Y10025   5.039   7.221   3.736 -2.0443 -1.1047  0.3913
  100SAPC   C3910026   5.095   7.285   3.937  0.3114  0.1423 -0.2345
  100SAPC   H9X10027   5.120   7.391   3.914 -0.1909  0.3212  0.0148
  100SAPC   H9Y10028   5.158   7.253   4.022  3.2028  0.8377 -1.9753
  100SAPC  C31010029   4.954   7.304   4.001  0.4891 -0.2724 -0.1302
  100SAPC  H10X10030   4.904   7.210   4.033 -2.1743  1.5416  1.4414
  100SAPC  H10Y10031   4.882   7.363   3.940  0.7043  1.9540  1.6278
  100SAPC  C31110032   4.961   7.388   4.126 -0.0897  0.1102 -0.0294
  100SAPC  H11X10033   5.002   7.488   4.097  2.7746 -0.5003  1.5259
  100SAPC  H11Y10034   5.033   7.345   4.198 -2.1057 -2.3827  0.6316
  100SAPC  C31210035   4.834   7.413   4.203  0.3031  0.4774 -0.2188
  100SAPC  H12X10036   4.773   7.322   4.218  1.6223 -0.1085  2.1277
  100SAPC  H12Y10037   4.777   7.482   4.137  1.7867 -0.0203 -2.1185
  100SAPC  C31310038   4.860   7.481   4.338 -0.6223 -0.1258  0.4851
  100SAPC  H13X10039   4.931   7.563   4.318 -1.2928 -0.2172 -2.8881
  100SAPC  H13Y10040   4.920   7.409   4.398  0.2292  0.4064  0.2818
  100SAPC  C31410041   4.731   7.525   4.413  0.2617  0.2424  0.2325
  100SAPC  H14X10042   4.652   7.448   4.407  0.4361  0.1468 -1.1088
  100SAPC  H14Y10043   4.682   7.610   4.361 -1.9338 -1.2062 -0.1871
  100SAPC  C31510044   4.759   7.581   4.555 -0.1736 -0.0270  0.2721
  100SAPC  H15X10045   4.815   7.507   4.616  1.4217  1.0962  0.2425
  100SAPC  H15Y10046   4.656   7.596   4.594 -0.2479 -1.6464  0.7549
  100SAPC  C31610047   4.839   7.707   4.543  0.3636 -0.7614 -0.1120
  100SAPC  H16X10048   4.790   7.769   4.464  2.3318 -0.8687 -1.4873
  100SAPC  H16Y10049   4.947   7.689   4.523  0.9434  2.0144  0.1038
  100SAPC  C31710050   4.851   7.770   4.682  0.5371 -0.2487 -0.1920
  100SAPC  H17X10051   4.894   7.868   4.652 -4.5468  1.8744 -1.7553
  100SAPC  H17Y10052   4.921   7.728   4.756 -0.5963 -0.9293  0.5261
  100SAPC  C31810053   4.721   7.791   4.754  0.0228  0.2882  0.8977
  100SAPC  H18X10054   4.697   7.701   4.815  0.3071 -0.5478 -0.1885
  100SAPC  H18Y10055   4.639   7.822   4.685  0.8753  0.1350 -0.2086
  100SAPC  H18Z10056   4.727   7.874   4.827  0.3221  1.7201 -0.7072
  101OSM      N10057   5.712   4.208   7.171 -0.3348  0.1066 -0.0129
  101OSM    C1510058   5.858   4.181   7.132 -0.0863 -0.4912 -0.3847
  101OSM   H15A10059   5.882   4.076   7.128  3.3022  0.0427  1.6801
  101OSM   H15B10060   5.917   4.223   7.212 -0.8837 -0.0291 -0.0245
  101OSM   H15C10061   5.874   4.219   7.032 -1.3817  1.6975  0.1750
  101OSM    C1410062   5.702   4.144   7.305 -0.5342 -0.0094  0.6406
  101OSM   H14A10063   5.687   4.039   7.284 -1.3908  0.2317 -0.0104
  101OSM   H14B10064   5.623   4.186   7.365 -0.1802  0.5617  0.7156
  101OSM   H14C10065   5.798   4.157   7.352  0.4372 -0.8096 -1.0145
  101OSM    C1310066   5.689   4.352   7.185  0.2640  0.1034  0.8944
  101OSM   H13A10067   5.591   4.372   7.226  0.3332  0.4200  0.9024
  101OSM   H13B10068   5.696   4.396   7.087  1.6143 -1.4977  0.2313
  101OSM   H13C10069   5.758   4.399   7.254  0.6234 -0.5543  0.9964
  101OSM    C1210070   5.616   4.144   7.082 -0.3432  0.5563  0.1326
  101OSM   H12A10071   5.592   4.211   7.000  0.5122  0.0819 -0.5244
  101OSM   H12B10072   5.522   4.141   7.134  0.2951  1.3178  1.3693
  101OSM    C1110073   5.642   4.001   7.024  0.0365  0.2515  1.2669
  101OSM   H11A10074   5.727   4.021   6.955  0.3478 -1.1740  1.2166
  101OSM   H11B10075   5.553   3.985   6.960 -0.0502  0.0357  1.4424
  101OSM      P10076   5.551   3.798   7.153 -0.2886 -0.3379  0.2920
  101OSM    O1310077   5.612   3.681   7.211 -1.1026  0.8836  0.4282
  101OSM    O1410078   5.429   3.858   7.221 -0.5374  0.3813 -0.0790
  101OSM    O1110079   5.506   3.747   7.012  0.2381 -0.0540 -0.3150
  101OSM    O1210080   5.666   3.905   7.129 -0.0024  0.4694 -0.1440
  101OSM    C1S10081   5.606   3.682   6.919  0.5931 -0.2947 -0.2018
  101OSM    H1S10082   5.654   3.592   6.963 -1.3809 -0.2639  2.2287
  101OSM    H1T10083   5.676   3.759   6.878  0.0259  1.4515  1.8999
  101OSM     NF10084   5.627   3.562   6.698 -0.0094  0.1190 -0.0853
  101OSM    HNF10085   5.645   3.608   6.611  1.3737  0.9355  0.5981
  101OSM    C2S10086   5.533   3.630   6.788 -0.5781  0.2527  0.5112
  101OSM    H2S10087   5.471   3.544   6.820 -0.8054 -0.2514 -1.2325
  101OSM    C3S10088   5.446   3.731   6.720  0.1538 -0.7490 -0.4164
  101OSM    H3S10089   5.516   3.802   6.671 -1.0663  0.9925  0.2449
  101OSM     O310090   5.364   3.805   6.804 -0.1277 -0.6537 -0.1705
  101OSM    HO310091   5.395   3.789   6.894  0.7609  2.2363  0.1413
  101OSM    C4S10092   5.352   3.672   6.612  0.2138 -0.5960 -0.3266
  101OSM    H4S10093   5.267   3.612   6.647  0.9082 -1.2354  0.2826
  101OSM    C5S10094   5.378   3.682   6.481  0.0457 -0.3100  0.5495
  101OSM    H5S10095   5.470   3.735   6.452 -1.6164  2.0226 -0.8430
  101OSM    C6S10096   5.290   3.631   6.370  0.9938 -0.0832  0.3767
  101OSM    H6S10097   5.189   3.634   6.416  1.4132  1.3816  1.2564
  101OSM    H6T10098   5.324   3.528   6.344 -1.3591 -1.6014  2.7959
  101OSM    C7S10099   5.289   3.723   6.245  0.0793  0.0193  0.6599
  101OSM    H7S10100   5.391   3.764   6.227  0.0214 -0.9388 -2.4109
  101OSM    H7T10101   5.234   3.818   6.262 -0.5115 -0.2295  0.1704
  101OSM    C8S10102   5.235   3.664   6.115 -0.5165 -0.3625 -0.1642
  101OSM    H8S10103   5.147   3.603   6.146  0.5892 -1.8370  0.2005
  101OSM    H8T10104   5.314   3.595   6.077 -1.2357 -0.9887 -0.5701
  101OSM    C9S10105   5.212   3.769   6.006 -0.6932 -0.3211 -0.3304
  101OSM    H9S10106   5.307   3.826   6.007 -0.5333 -0.4359  3.5246
  101OSM    H9T10107   5.127   3.839   6.019 -2.5360 -2.3664 -0.7896
  101OSM   C10S10108   5.196   3.702   5.866  0.3540  0.2502  0.3689
  101OSM   H10S10109   5.090   3.713   5.835  0.3401  1.4973  0.7924
  101OSM   H10T10110   5.228   3.596   5.857  0.2421  0.2337  0.1679
  101OSM   C11S10111   5.274   3.779   5.760  0.2994 -0.4620 -0.5182
  101OSM   H11S10112   5.380   3.746   5.763  0.6183  0.5056 -0.6727
  101OSM   H11T10113   5.278   3.889   5.777 -0.2917 -0.3183 -1.2601
  101OSM   C12S10114   5.237   3.755   5.615 -0.7977 -0.3794 -0.1100
  101OSM   H12S10115   5.143   3.812   5.601 -0.4931  0.5242  1.3101
  101OSM   H12T10116   5.225   3.644   5.611  1.8206 -0.7903  1.0556
  101OSM   C13S10117   5.333   3.807   5.511 -0.4862  0.6200  0.6075
  101OSM   H13S10118   5.420   3.739   5.501 -0.7873  0.1506  1.1088
  101OSM   H13T10119   5.386   3.899   5.543  2.2512 -1.3479  2.1522
  101OSM   C14S10120   5.277   3.825   5.365  0.2042  0.0383 -0.5787
  101OSM   H14S10121   5.201   3.905   5.374  2.3193  2.7443 -3.9231
  101OSM   H14T10122   5.220   3.735   5.334  0.9373 -0.3125 -0.9264
  101OSM   C15S10123   5.389   3.847   5.268 -0.0381 -0.8307  0.1846
  101OSM   H15S10124   5.446   3.752   5.265 -1.5851 -1.7837 -1.6757
  101OSM   H15T10125   5.454   3.933   5.295 -2.5894  0.9735  1.0133
  101OSM   C16S10126   5.338   3.878   5.128  0.0118 -0.0851 -0.0439
  101OSM   H16S10127   5.284   3.975   5.123 -0.0888 -0.0668  1.1385
  101OSM   H16T10128   5.271   3.797   5.092  0.1818  1.0039 -3.0711
  101OSM   C17S10129   5.455   3.881   5.030  0.3292 -0.6687 -0.2082
  101OSM   H17S10130   5.499   3.779   5.022 -0.5939 -0.9919 -1.3369
  101OSM   H17T10131   5.530   3.945   5.082 -0.3191  0.4880 -0.6755
  101OSM   C18S10132   5.444   3.946   4.889 -0.0781 -0.4435 -0.0515
  101OSM   H18S10133   5.539   3.966   4.834 -0.8098 -0.9760 -1.5298
  101OSM   H18T10134   5.385   4.040   4.898 -1.5847 -1.4997  1.7388
  101OSM   H18U10135   5.370   3.894   4.825  0.2162  0.2567 -0.9839
  101OSM    C1F10136   5.685   3.446   6.731  0.9504  0.2383  0.2513
  101OSM     OF10137   5.664   3.387   6.840  0.7309  0.1815 -0.1551
  101OSM    C2F10138   5.786   3.397   6.620  0.4543  0.5396 -0.2438
  101OSM    H2F10139   5.874   3.464   6.633  1.2214 -0.4606 -0.1246
  101OSM    H2G10140   5.739   3.422   6.523 -0.9348 -3.9849 -0.9600
  101OSM    C3F10141   5.808   3.247   6.626  0.2832 -0.2978 -0.1709
  101OSM    H3F10142   5.715   3.187   6.631 -1.1745  1.7801 -1.2075
  101OSM    H3G10143   5.873   3.216   6.711 -0.3347 -0.5938  0.2056
  101OSM    C4F10144   5.900   3.207   6.511  0.7381  0.1094 -0.4451
  101OSM    H4F10145   5.948   3.109   6.536 -0.7137 -0.2346  1.1751
  101OSM    H4G10146   5.984   3.280   6.507  0.8480  0.0737  0.6874
  101OSM    C5F10147   5.844   3.187   6.367  0.1431 -0.3044 -0.2660
  101OSM    H5F10148   5.792   3.284   6.353 -1.1352 -0.9510 -0.0778
  101OSM    H5G10149   5.767   3.108   6.373 -1.1914  0.9712  0.0483
  101OSM    C6F10150   5.939   3.161   6.251  0.3243  0.0922 -0.2702
  101OSM    H6F10151   5.879   3.144   6.159  0.3157  3.1643 -0.9533
  101OSM    H6G10152   5.991   3.066   6.274 -2.0031 -1.2488 -0.2452
  101OSM    C7F10153   6.032   3.277   6.225 -0.0549 -0.3080  0.3653
  101OSM    H7F10154   6.124   3.254   6.282 -1.3176 -2.6111  1.6018
  101OSM    H7G10155   5.987   3.376   6.247 -0.7412  0.1869 -2.8009
  101OSM    C8F10156   6.073   3.280   6.072  0.1886 -0.1346 -0.4868
  101OSM    H8F10157   6.098   3.176   6.039 -1.0654 -0.8308  0.6594
  101OSM    H8G10158   6.170   3.334   6.081  0.3118 -0.5232  0.5814
  101OSM    C9F10159   5.974   3.358   5.990 -0.2506  0.1628 -0.3105
  101OSM    H9F10160   5.874   3.344   6.036 -0.5043  2.2625 -0.1181
  101OSM   C10F10161   5.997   3.429   5.881  0.5184  0.3554 -0.1760
  101OSM   H10F10162   5.911   3.481   5.834  0.4473  2.9744  2.5476
  101OSM   C11F10163   6.126   3.426   5.808 -0.4550 -0.5509  0.7161
  101OSM   H11F10164   6.211   3.400   5.874  0.8773 -1.2714 -1.2154
  101OSM   H11G10165   6.153   3.527   5.769 -0.3712 -0.8982 -0.1432
  101OSM   C12F10166   6.119   3.343   5.683 -0.3019  0.6682  0.2841
  101OSM   H12F10167   6.085   3.238   5.697 -1.3807  0.7493 -1.3772
  101OSM   H12G10168   6.226   3.342   5.653  0.2981  0.9349  2.2530
  101OSM   C13F10169   6.033   3.405   5.572 -0.0214  0.0733 -0.1403
  101OSM   H13F10170   6.055   3.514   5.567 -3.5864  0.8850 -0.8408
  101OSM   H13G10171   5.927   3.402   5.604  0.3099 -0.4643  0.9499
  101OSM   C14F10172   6.050   3.350   5.429 -0.3293  0.8279  0.5935
  101OSM   H14F10173   6.024   3.243   5.422  0.0215  0.7023  1.1212
  101OSM   H14G10174   6.159   3.362   5.412 -0.6117  0.1120 -2.2574
  101OSM   C15F10175   5.971   3.421   5.317 -0.3156  0.0227  0.3939
  101OSM   H15F10176   6.000   3.528   5.325  1.0131 -0.4220  1.9295
  101OSM   H15G10177   5.861   3.416   5.331 -0.5655  0.1429 -1.3062
  101OSM   C16F10178   5.994   3.367   5.175  0.1153  0.3565 -0.2482
  101OSM   H16F10179   6.013   3.257   5.175 -1.8129 -0.0626  1.9142
  101OSM   H16G10180   6.099   3.398   5.155  0.9761  0.4498  3.5333
  101OSM   C17F10181   5.890   3.411   5.072 -0.4125 -0.0894 -0.2845
  101OSM   H17F10182   5.881   3.520   5.092 -0.9558 -0.1339 -0.2789
  101OSM   H17G10183   5.792   3.360   5.085  1.0446 -2.7235  1.2488
  101OSM   C18F10184   5.936   3.372   4.934  0.0743  0.2360  0.2913
  101OSM   H18F10185   6.046   3.392   4.931  0.5948 -2.2804 -0.1580
  101OSM   H18G10186   5.869   3.429   4.866  1.9492  0.5768 -1.3778
  101OSM   H18H10187   5.928   3.262   4.917 -0.2340  0.3490 -0.3280
  102OSM      N10188   0.087   2.647   7.182 -0.0705  0.7862 -0.3112
  102OSM    C1510189   0.157   2.698   7.300  0.5791  0.2396  0.7923
  102OSM   H15A10190   0.101   2.774   7.353  0.1399 -0.2965  1.1056
  102OSM   H15B10191   0.248   2.749   7.269  0.4368 -0.1376 -0.2992
  102OSM   H15C10192   0.186   2.610   7.355  4.5186 -0.6111 -2.1663
  102OSM    C1410193   0.184   2.568   7.097 -0.4357 -0.4798 -0.8250
  102OSM   H14A10194   0.133   2.541   7.006 -1.5120 -0.6603 -0.1869
  102OSM   H14B10195   0.220   2.478   7.146  0.8363  1.0378  1.1870
  102OSM   H14C10196   0.268   2.628   7.064 -0.9539 -1.1057 -3.5792
  102OSM    C1310197  -0.030   2.566   7.229 -0.6896 -0.5315 -1.0690
  102OSM   H13A10198  -0.079   2.607   7.316 -1.0296  0.0182 -1.5122
  102OSM   H13B10199   0.004   2.467   7.255 -1.0747 -0.0120  1.6534
  102OSM   H13C10200  -0.108   2.554   7.155 -0.9341 -1.0207 -0.7395
  102OSM    C1210201   0.018   2.745   7.092 -0.1712  0.0971  0.4538
  102OSM   H12A10202  -0.057   2.802   7.144  1.0080  1.3258  0.8561
  102OSM   H12B10203  -0.040   2.690   7.019  0.6930  0.4596 -0.5234
  102OSM    C1110204   0.100   2.845   7.005  0.0969  0.1769  0.3503
  102OSM   H11A10205   0.030   2.920   6.964  1.5793  0.9185 -0.9038
  102OSM   H11B10206   0.152   2.786   6.927  0.8365 -0.3247  1.2013
  102OSM      P10207   0.184   3.030   7.175  0.0527  0.1895  0.2718
  102OSM    O1310208   0.054   3.050   7.247  0.5376  0.1392 -0.4677
  102OSM    O1410209   0.303   3.038   7.261  0.6049 -0.6859  0.8404
  102OSM    O1110210   0.185   3.132   7.055  0.3061 -0.2525  0.4175
  102OSM    O1210211   0.198   2.902   7.084 -0.2025  0.2664 -0.4833
  102OSM    C1S10212   0.308   3.169   6.994  0.2068 -0.5059  0.1180
  102OSM    H1S10213   0.360   3.073   6.976 -1.9538 -1.9592  1.1762
  102OSM    H1T10214   0.362   3.236   7.063 -1.9790  0.6232  0.8353
  102OSM     NF10215   0.417   3.306   6.797  0.5969 -0.2776  0.4364
  102OSM    HNF10216   0.420   3.405   6.788  0.1531 -0.3603 -0.8239
  102OSM    C2S10217   0.292   3.255   6.857  0.0551  0.2131 -0.0049
  102OSM    H2S10218   0.263   3.171   6.790 -0.8955 -1.3341  2.2046
  102OSM    C3S10219   0.175   3.365   6.864 -0.9034  0.1048 -0.3800
  102OSM    H3S10220   0.209   3.448   6.929 -0.6349  0.9236 -1.5453
  102OSM     O310221   0.058   3.324   6.935 -0.4065 -0.5309  0.6615
  102OSM    HO310222   0.083   3.243   6.980  0.4612  0.1987  1.5634
  102OSM    C4S10223   0.149   3.422   6.725 -0.4009  0.6906 -0.4995
  102OSM    H4S10224   0.203   3.515   6.703  0.9156  0.0668 -0.0199
  102OSM    C5S10225   0.068   3.363   6.637  0.2676 -0.5806  0.9652
  102OSM    H5S10226   0.017   3.266   6.649 -0.2806 -0.2814  1.0841
  102OSM    C6S10227   0.058   3.414   6.495 -0.6149 -0.4957 -0.1756
  102OSM    H6S10228   0.120   3.506   6.486 -0.1599 -0.8678 -1.0446
  102OSM    H6T10229  -0.049   3.434   6.473 -0.6389 -0.3718  0.0550
  102OSM    C7S10230   0.132   3.322   6.395 -1.0799 -0.3786  0.4130
  102OSM    H7S10231   0.082   3.223   6.390 -2.5670  0.3917 -0.5706
  102OSM    H7T10232   0.241   3.318   6.419 -0.4421 -0.2002 -2.1822
  102OSM    C8S10233   0.136   3.371   6.241 -0.0758  0.3464 -0.6209
  102OSM    H8S10234   0.178   3.474   6.232  2.2175 -0.4596  0.0623
  102OSM    H8T10235   0.027   3.370   6.218  0.0404 -1.6465 -1.2547
  102OSM    C9S10236   0.179   3.274   6.132  0.1323  0.0033 -0.3193
  102OSM    H9S10237   0.087   3.218   6.104  0.0950  0.5290 -1.2767
  102OSM    H9T10238   0.258   3.205   6.168  2.1697  2.0046 -0.7445
  102OSM   C10S10239   0.259   3.342   6.022 -0.1820 -0.5688  0.0925
  102OSM   H10S10240   0.355   3.364   6.072 -0.3333 -0.2450  0.2386
  102OSM   H10T10241   0.199   3.430   5.991 -0.7949  0.1436  3.0456
  102OSM   C11S10242   0.291   3.259   5.900 -0.2112  0.0462 -0.1929
  102OSM   H11S10243   0.195   3.229   5.853  0.6914  0.6850 -2.5887
  102OSM   H11T10244   0.342   3.172   5.947  0.9570  0.4283 -0.7110
  102OSM   C12S10245   0.377   3.330   5.793  0.7392  0.5535 -0.0543
  102OSM   H12S10246   0.419   3.255   5.723 -0.1711  1.4479 -1.6071
  102OSM   H12T10247   0.471   3.363   5.842  0.7846 -1.1521  1.0930
  102OSM   C13S10248   0.297   3.434   5.716 -2.0921 -0.1502 -0.4633
  102OSM   H13S10249   0.256   3.511   5.784 -0.4823 -0.5380  1.0137
  102OSM   H13T10250   0.222   3.382   5.653  0.0349 -1.2767 -2.2405
  102OSM   C14S10251   0.392   3.515   5.626 -0.0428  0.4175 -0.0363
  102OSM   H14S10252   0.436   3.442   5.555  1.5724  1.4400 -0.1429
  102OSM   H14T10253   0.468   3.562   5.692  0.1018 -0.3678  0.3676
  102OSM   C15S10254   0.330   3.624   5.546  0.6968  0.2072  0.1318
  102OSM   H15S10255   0.308   3.709   5.614  1.1002  2.1536 -2.0287
  102OSM   H15T10256   0.235   3.583   5.504 -0.3072  0.3570  2.1625
  102OSM   C16S10257   0.419   3.660   5.424  0.3546  0.2510  1.1571
  102OSM   H16S10258   0.466   3.564   5.394 -1.4344  0.4732 -2.9873
  102OSM   H16T10259   0.493   3.736   5.457 -1.1479  2.1037  0.4316
  102OSM   C17S10260   0.341   3.719   5.303 -0.4198 -0.4659  0.7413
  102OSM   H17S10261   0.299   3.820   5.325  3.3379  2.1129 -2.4250
  102OSM   H17T10262   0.262   3.648   5.272  1.1021 -2.0704  0.4044
  102OSM   C18S10263   0.443   3.738   5.180  0.3606  0.3484  0.1760
  102OSM   H18S10264   0.371   3.783   5.109 -0.1072  2.2934  1.7706
  102OSM   H18T10265   0.489   3.641   5.152  1.7669  0.0666  3.0539
  102OSM   H18U10266   0.526   3.807   5.206  1.0955 -1.5469  3.5403
  102OSM    C1F10267   0.525   3.232   6.774  0.0992 -0.7377  0.9383
  102OSM     OF10268   0.534   3.118   6.799  0.4460  0.3173 -0.4319
  102OSM    C2F10269   0.639   3.306   6.712 -0.1715 -0.0427 -0.0381
  102OSM    H2F10270   0.694   3.369   6.785  0.1313 -1.1157  0.6707
  102OSM    H2G10271   0.606   3.374   6.630  0.9423  0.7328  0.1374
  102OSM    C3F10272   0.751   3.213   6.649 -1.0205 -0.0209  0.4789
  102OSM    H3F10273   0.714   3.156   6.561  0.4654  0.9689 -0.8284
  102OSM    H3G10274   0.784   3.141   6.726  1.2557 -0.9486 -1.2540
  102OSM    C4F10275   0.875   3.291   6.610  0.7337 -0.5704 -0.3347
  102OSM    H4F10276   0.952   3.219   6.575  0.9179 -0.4590 -0.1617
  102OSM    H4G10277   0.920   3.346   6.696 -1.3762  1.9823 -0.7306
  102OSM    C5F10278   0.850   3.394   6.502 -0.3724  0.3590 -0.0295
  102OSM    H5F10279   0.765   3.461   6.526 -1.0444 -0.9128  1.3598
  102OSM    H5G10280   0.829   3.337   6.409  2.0730  1.6425 -1.4785
  102OSM    C6F10281   0.984   3.475   6.478 -0.7335 -0.3153  0.2865
  102OSM    H6F10282   1.067   3.401   6.482 -1.6159 -1.3498 -0.2273
  102OSM    H6G10283   1.001   3.536   6.570 -1.0020 -1.7218  1.3131
  102OSM    C7F10284   0.980   3.558   6.355  0.2122 -0.1582  0.9456
  102OSM    H7F10285   0.893   3.628   6.357 -0.3678 -0.8687  1.0675
  102OSM    H7G10286   0.953   3.499   6.265  3.6238  1.7925 -1.5975
  102OSM    C8F10287   1.112   3.627   6.315  0.3773  0.2133 -0.3633
  102OSM    H8F10288   1.101   3.670   6.213 -1.3850 -0.7184 -0.6143
  102OSM    H8G10289   1.184   3.544   6.303  0.4314  0.2958 -0.6115
  102OSM    C9F10290   1.150   3.747   6.399  0.3105 -0.4179  0.5538
  102OSM    H9F10291   1.119   3.746   6.505  0.3406 -0.2630  0.5632
  102OSM   C10F10292   1.232   3.846   6.357 -0.2938 -0.0355  0.2937
  102OSM   H10F10293   1.258   3.930   6.423  0.1500 -0.0924  0.1942
  102OSM   C11F10294   1.300   3.855   6.223  0.2355 -0.0504 -0.1645
  102OSM   H11F10295   1.325   3.755   6.182  0.0085 -1.3454  2.6047
  102OSM   H11G10296   1.400   3.904   6.230  0.0240  0.4612 -0.6414
  102OSM   C12F10297   1.206   3.926   6.117 -0.1474 -0.3660  0.0306
  102OSM   H12F10298   1.103   3.884   6.115 -1.2017  2.0559  0.5536
  102OSM   H12G10299   1.256   3.915   6.018 -1.2438 -2.3694 -0.3674
  102OSM   C13F10300   1.186   4.075   6.120 -0.0565  0.0802 -0.7046
  102OSM   H13F10301   1.281   4.117   6.158  1.1070 -0.4189 -2.9120
  102OSM   H13G10302   1.114   4.104   6.200 -0.7759 -0.0391 -1.2900
  102OSM   C14F10303   1.163   4.145   5.985 -0.2685 -0.4688  0.1229
  102OSM   H14F10304   1.067   4.105   5.946 -0.0579 -2.0703  1.1572
  102OSM   H14G10305   1.251   4.110   5.925 -0.4350  0.9300 -0.9895
  102OSM   C15F10306   1.158   4.296   5.987 -0.0773 -0.2710  0.0963
  102OSM   H15F10307   1.252   4.336   6.032  0.0450  2.2483 -2.0969
  102OSM   H15G10308   1.071   4.322   6.051  1.0156  0.6788  1.2579
  102OSM   C16F10309   1.138   4.362   5.853 -0.3039 -0.0464  0.3659
  102OSM   H16F10310   1.056   4.309   5.799  1.5671 -0.0778 -2.6918
  102OSM   H16G10311   1.226   4.343   5.789  1.4855 -1.6228  3.0647
  102OSM   C17F10312   1.133   4.517   5.869 -0.4671 -0.0415 -0.4521
  102OSM   H17F10313   1.222   4.538   5.932 -0.3157 -2.6328  0.3357
  102OSM   H17G10314   1.044   4.541   5.930  1.0922  1.2016  1.4650
  102OSM   C18F10315   1.149   4.598   5.738 -0.2163  0.8728  0.3385
  102OSM   H18F10316   1.162   4.706   5.757 -0.3921  0.8897  0.3578
  102OSM   H18G10317   1.058   4.582   5.677 -1.9932  1.9182  2.5821
  102OSM   H18H10318   1.240   4.565   5.682 -1.1780 -0.1774 -0.6663
  103OSM      N10319   5.707   5.325   7.601 -0.1370 -0.3684  0.1918
  103OSM    C1510320   5.858   5.337   7.603  0.3276  0.1569  0.1172
  103OSM   H15A10321   5.905   5.255   7.551  0.9150  0.6274 -0.1080
  103OSM   H15B10322   5.893   5.342   7.705 -0.6477  0.4019  0.4478
  103OSM   H15C10323   5.886   5.422   7.543  2.1020 -0.3716  0.1460
  103OSM    C1410324   5.669   5.215   7.689 -0.0001  0.0066  0.0365
  103OSM   H14A10325   5.695   5.116   7.654  0.4924  0.0354  0.3086
  103OSM   H14B10326   5.562   5.208   7.691 -0.0768  0.9509 -0.2385
  103OSM   H14C10327   5.706   5.218   7.790 -2.5872  0.6081  1.0440
  103OSM    C1310328   5.645   5.443   7.658  0.2628  0.7973 -0.4595
  103OSM   H13A10329   5.676   5.470   7.758  0.3417  2.0724 -0.8142
  103OSM   H13B10330   5.539   5.430   7.674  0.3650  1.4477  0.8769
  103OSM   H13C10331   5.666   5.530   7.599 -0.3188 -0.5585 -2.8060
  103OSM    C1210332   5.653   5.302   7.463  0.5031 -0.9660 -0.0257
  103OSM   H12A10333   5.714   5.228   7.412  2.0659  1.3373 -1.7054
  103OSM   H12B10334   5.674   5.396   7.415  0.8992  0.1215  2.1244
  103OSM    C1110335   5.509   5.262   7.438 -0.6543 -0.3090  0.0023
  103OSM   H11A10336   5.502   5.267   7.328 -1.8271  1.5350  0.1348
  103OSM   H11B10337   5.440   5.337   7.481 -1.7177 -2.7320  2.9311
  103OSM      P10338   5.553   4.999   7.446  0.3876 -0.0773 -0.0176
  103OSM    O1310339   5.690   4.989   7.510  0.1569  0.3171  0.6761
  103OSM    O1410340   5.459   4.889   7.461  0.1234  0.1481  0.0975
  103OSM    O1110341   5.582   5.025   7.290 -0.1900 -0.1170 -0.4168
  103OSM    O1210342   5.476   5.136   7.487 -0.0632 -0.3654  0.0042
  103OSM    C1S10343   5.489   5.018   7.188  0.3095  0.1257 -0.3309
  103OSM    H1S10344   5.409   5.092   7.208  0.1304 -0.6966  2.4187
  103OSM    H1T10345   5.430   4.924   7.196 -1.3359  1.1396 -0.1255
  103OSM     NF10346   5.440   4.976   6.958  0.8419  0.0983 -0.1789
  103OSM    HNF10347   5.452   4.892   6.906 -1.1343 -0.2204 -0.2146
  103OSM    C2S10348   5.542   5.018   7.045 -0.7511 -0.0940  0.5392
  103OSM    H2S10349   5.560   5.123   7.013  1.1375 -0.8762 -1.1899
  103OSM    C3S10350   5.677   4.938   7.029  0.2507 -1.1243  0.1180
  103OSM    H3S10351   5.660   4.829   7.016 -1.0221 -0.9090 -0.1343
  103OSM     O310352   5.764   4.958   7.141  0.4299  0.2314  0.0091
  103OSM    HO310353   5.698   4.987   7.204  0.5256 -2.3891  1.4790
  103OSM    C4S10354   5.744   4.994   6.906  0.6029  0.2023 -0.1119
  103OSM    H4S10355   5.735   4.936   6.813 -1.9590  0.4101 -0.0764
  103OSM    C5S10356   5.818   5.104   6.893 -0.1706 -0.3197 -0.4328
  103OSM    H5S10357   5.824   5.176   6.976 -1.8419  1.4769 -1.7571
  103OSM    C6S10358   5.891   5.146   6.765  0.2552 -0.5889 -0.1900
  103OSM    H6S10359   5.937   5.057   6.718 -0.6939 -1.3246  0.2457
  103OSM    H6T10360   5.978   5.213   6.785  0.0687  0.8247 -3.5174
  103OSM    C7S10361   5.806   5.235   6.664 -0.1334  0.3445 -0.2301
  103OSM    H7S10362   5.756   5.313   6.725 -1.5685 -0.9767  0.3568
  103OSM    H7T10363   5.716   5.177   6.633 -0.9860  1.6028 -0.1902
  103OSM    C8S10364   5.871   5.296   6.548  0.3209  0.8969  0.1221
  103OSM    H8S10365   5.965   5.338   6.589  0.0783  0.1094  1.5677
  103OSM    H8T10366   5.803   5.374   6.508 -0.6554 -1.5032 -3.4608
  103OSM    C9S10367   5.897   5.194   6.438  0.0561  0.1728 -0.2415
  103OSM    H9S10368   5.799   5.148   6.411  0.6341 -1.5876  0.5436
  103OSM    H9T10369   5.957   5.112   6.482  3.6877  1.4496 -2.3803
  103OSM   C10S10370   5.965   5.269   6.324  0.5501 -0.0885 -0.3056
  103OSM   H10S10371   6.053   5.324   6.363 -0.7511  1.2377  0.8790
  103OSM   H10T10372   5.904   5.359   6.302  1.2410  0.4237 -0.1652
  103OSM   C11S10373   5.997   5.189   6.207 -0.1137 -0.3635  0.4058
  103OSM   H11S10374   5.925   5.108   6.182  2.3746 -1.7770 -2.9904
  103OSM   H11T10375   6.085   5.127   6.236 -0.4230 -2.0730 -2.0368
  103OSM   C12S10376   6.045   5.266   6.079 -0.5960 -0.2846  0.3537
  103OSM   H12S10377   6.107   5.354   6.109  0.5386 -0.5506 -1.1169
  103OSM   H12T10378   5.956   5.311   6.031 -0.1240  0.0121 -0.2669
  103OSM   C13S10379   6.112   5.189   5.964 -0.3613 -0.1192 -0.4789
  103OSM   H13S10380   6.030   5.128   5.921 -1.4991  1.4717 -0.6674
  103OSM   H13T10381   6.191   5.120   6.000 -1.1995 -1.6332 -1.4379
  103OSM   C14S10382   6.176   5.285   5.864 -0.2282  0.3187  0.1132
  103OSM   H14S10383   6.237   5.364   5.912 -0.7641  1.9490 -1.7413
  103OSM   H14T10384   6.110   5.354   5.807  1.8175  3.0230  0.7695
  103OSM   C15S10385   6.269   5.206   5.769  0.3551  0.1476 -0.1760
  103OSM   H15S10386   6.215   5.117   5.732 -0.7552  1.0041 -0.6751
  103OSM   H15T10387   6.357   5.167   5.823  1.8857  0.1883 -2.5176
  103OSM   C16S10388   6.314   5.299   5.654  0.1189  0.5150 -0.3585
  103OSM   H16S10389   6.400   5.247   5.607  0.9119 -0.2731  1.8404
  103OSM   H16T10390   6.354   5.392   5.699  0.2303  0.0309  0.5643
  103OSM   C17S10391   6.203   5.321   5.557 -0.4034 -0.3355  0.5601
  103OSM   H17S10392   6.121   5.382   5.600 -1.0292 -2.1031  1.9857
  103OSM   H17T10393   6.155   5.225   5.529  1.8364 -1.5923  0.7771
  103OSM   C18S10394   6.260   5.374   5.428  0.8392 -0.7388  0.5526
  103OSM   H18S10395   6.305   5.473   5.446  0.1817 -0.1757 -0.7779
  103OSM   H18T10396   6.181   5.374   5.349  0.2342  1.2410  1.1199
  103OSM   H18U10397   6.339   5.303   5.395  1.5874  0.6078 -0.6310
  103OSM    C1F10398   5.320   5.036   6.948 -0.2114  0.7272  0.1438
  103OSM     OF10399   5.297   5.139   7.009  0.4258  0.0585 -0.4393
  103OSM    C2F10400   5.211   4.964   6.867  0.1393  0.6677  0.5594
  103OSM    H2F10401   5.147   4.898   6.929 -1.4058 -1.8187 -3.3015
  103OSM    H2G10402   5.254   4.903   6.785 -0.9019  2.1716 -1.1904
  103OSM    C3F10403   5.118   5.065   6.792 -0.0871 -0.2320 -0.0412
  103OSM    H3F10404   5.170   5.132   6.720 -1.5963  2.2509  1.0228
  103OSM    H3G10405   5.082   5.142   6.863  0.4029  0.2142 -0.2673
  103OSM    C4F10406   4.998   4.995   6.729  0.2386 -0.2338  0.7125
  103OSM    H4F10407   4.927   5.072   6.694  0.9718  0.3146  0.4051
  103OSM    H4G10408   4.928   4.940   6.796 -1.5337  1.4620  0.3523
  103OSM    C5F10409   5.042   4.899   6.625  0.5523  0.1816 -0.0245
  103OSM    H5F10410   4.954   4.831   6.615  1.1535 -0.4058 -1.5697
  103OSM    H5G10411   5.130   4.838   6.655  0.7043  1.2188  1.7505
  103OSM    C6F10412   5.067   4.965   6.492  0.4784  0.1259 -0.2273
  103OSM    H6F10413   5.150   5.038   6.488 -0.2129  0.9599  0.1858
  103OSM    H6G10414   4.979   5.025   6.460 -1.5691 -2.8452 -0.5807
  103OSM    C7F10415   5.086   4.867   6.371 -0.0707 -0.3770  0.3224
  103OSM    H7F10416   5.022   4.780   6.398  0.0543 -0.2328  1.1147
  103OSM    H7G10417   5.190   4.829   6.370 -0.6094 -1.9183 -0.1519
  103OSM    C8F10418   5.041   4.922   6.233 -0.6877  0.1507 -0.1853
  103OSM    H8F10419   4.931   4.938   6.237 -0.6726  0.1040  0.4008
  103OSM    H8G10420   5.065   4.850   6.152  0.1412  0.8765 -0.5960
  103OSM    C9F10421   5.120   5.050   6.196  0.5783  0.1712  0.1643
  103OSM    H9F10422   5.140   5.131   6.267 -1.3064  1.2620 -0.4744
  103OSM   C10F10423   5.156   5.076   6.071  0.1782 -0.2530 -0.1623
  103OSM   H10F10424   5.219   5.167   6.070 -1.5890  1.0557  1.3878
  103OSM   C11F10425   5.151   4.998   5.942 -0.3902 -0.1933 -0.1807
  103OSM   H11F10426   5.061   5.031   5.886 -0.5117 -1.8170 -0.9997
  103OSM   H11G10427   5.139   4.890   5.966  0.2789 -0.1489  0.3667
  103OSM   C12F10428   5.276   5.033   5.859 -0.0694  0.0538 -1.0060
  103OSM   H12F10429   5.372   4.985   5.889 -0.3543  0.5092  0.7341
  103OSM   H12G10430   5.295   5.142   5.865  1.0273 -0.1890  0.1553
  103OSM   C13F10431   5.262   5.005   5.710  0.1506  0.4485  0.6269
  103OSM   H13F10432   5.363   5.028   5.669  0.1418 -0.0805  0.2992
  103OSM   H13G10433   5.186   5.073   5.666  2.4509  1.6575 -1.7734
  103OSM   C14F10434   5.239   4.861   5.671  0.5850 -0.5443  0.0717
  103OSM   H14F10435   5.149   4.829   5.728 -0.4513  3.4946  1.0241
  103OSM   H14G10436   5.328   4.799   5.694  2.1621  0.9743 -1.6096
  103OSM   C15F10437   5.214   4.831   5.514 -0.7790 -0.5126 -0.2995
  103OSM   H15F10438   5.113   4.853   5.473 -0.6094  0.1977 -0.3353
  103OSM   H15G10439   5.221   4.720   5.515  0.3644 -0.4487  0.2086
  103OSM   C16F10440   5.334   4.879   5.426  0.4816 -0.0316  0.1260
  103OSM   H16F10441   5.431   4.841   5.464  1.1876 -0.0109 -1.5587
  103OSM   H16G10442   5.323   4.989   5.421 -0.2758 -0.1162 -0.2925
  103OSM   C17F10443   5.331   4.807   5.289 -1.1364  0.1313  0.6582
  103OSM   H17F10444   5.224   4.815   5.259 -0.9681  1.0472  0.2906
  103OSM   H17G10445   5.346   4.697   5.298 -1.3735 -0.1762 -2.0014
  103OSM   C18F10446   5.428   4.866   5.181  0.2672 -0.0444  0.1719
  103OSM   H18F10447   5.418   4.824   5.079  3.4325 -0.2644 -0.1334
  103OSM   H18G10448   5.532   4.854   5.220  0.4025  0.2817 -0.0905
  103OSM   H18H10449   5.404   4.974   5.175  0.5728  0.0307  0.2791
  104OSM      N10450   6.509   3.712   7.331 -0.3959  0.6827  0.6968
  104OSM    C1510451   6.628   3.700   7.244  1.1264 -0.2881  0.6471
  104OSM   H15A10452   6.656   3.596   7.233 -0.6647 -0.8559  0.9583
  104OSM   H15B10453   6.717   3.743   7.287  1.3575  1.6333 -1.5679
  104OSM   H15C10454   6.603   3.756   7.155  0.7619 -0.3160  0.7277
  104OSM    C1410455   6.533   3.601   7.427 -0.0093 -0.2343 -0.3257
  104OSM   H14A10456   6.620   3.616   7.488 -1.4372 -0.2179  1.8026
  104OSM   H14B10457   6.540   3.506   7.376 -1.0644  0.2521 -1.4415
  104OSM   H14C10458   6.440   3.589   7.481 -0.1258 -0.6647 -0.6094
  104OSM    C1310459   6.501   3.848   7.391 -0.2773  0.6447 -0.2275
  104OSM   H13A10460   6.480   3.912   7.307  0.9288  3.4494  1.4768
  104OSM   H13B10461   6.590   3.887   7.438 -1.5821  0.5440  2.5093
  104OSM   H13C10462   6.417   3.853   7.458 -1.3565 -3.9272 -0.8674
  104OSM    C1210463   6.385   3.671   7.255 -0.1067  0.2736 -0.6156
  104OSM   H12A10464   6.303   3.665   7.326  1.0779 -0.2775  0.7566
  104OSM   H12B10465   6.395   3.570   7.218  1.6998  0.8823 -1.9138
  104OSM    C1110466   6.348   3.761   7.134  0.5303 -0.0758  0.4594
  104OSM   H11A10467   6.276   3.699   7.077  0.0922 -0.6875  1.6544
  104OSM   H11B10468   6.436   3.770   7.067  0.5207 -3.2134 -0.1238
  104OSM      P10469   6.137   3.896   7.224  0.1583 -0.1510  0.6151
  104OSM    O1310470   6.111   3.794   7.332  0.1463  0.2877  0.5795
  104OSM    O1410471   6.117   4.035   7.265  0.0674  0.1752 -0.5356
  104OSM    O1110472   6.055   3.863   7.091 -0.1011  0.2003  0.1546
  104OSM    O1210473   6.291   3.888   7.170  0.6533 -0.0072  0.2580
  104OSM    C1S10474   6.062   3.956   6.982  0.4922  0.3207  0.3045
  104OSM    H1S10475   6.144   4.029   6.996  1.5383 -0.6483 -0.5739
  104OSM    H1T10476   5.966   4.011   6.968 -0.1350 -0.8414 -0.1110
  104OSM     NF10477   6.111   3.955   6.733 -1.1475 -1.0687  0.6292
  104OSM    HNF10478   6.031   3.953   6.674 -2.2559  1.9135  1.8389
  104OSM    C2S10479   6.085   3.870   6.850  0.4074  0.4759  0.6700
  104OSM    H2S10480   6.173   3.809   6.879  0.4524  1.2324  2.2629
  104OSM    C3S10481   5.970   3.781   6.822  0.2813  0.3339  0.4178
  104OSM    H3S10482   5.890   3.853   6.795  0.8037  0.7248 -0.1153
  104OSM     O310483   5.914   3.700   6.925 -0.8858 -0.6733  0.0284
  104OSM    HO310484   5.961   3.730   7.003  0.4097 -1.7607 -0.2941
  104OSM    C4S10485   5.994   3.702   6.701 -0.0177 -0.0985 -0.3110
  104OSM    H4S10486   5.937   3.729   6.611 -2.2437 -2.1117  0.3766
  104OSM    C5S10487   6.080   3.598   6.682  0.6017 -0.1880 -0.4373
  104OSM    H5S10488   6.139   3.563   6.768  0.0026 -0.0105  0.0537
  104OSM    C6S10489   6.098   3.534   6.549 -0.2407  0.0822 -0.1279
  104OSM    H6S10490   6.006   3.518   6.488 -0.0767 -1.9451  0.1032
  104OSM    H6T10491   6.145   3.434   6.554  0.5648  0.4542 -0.0468
  104OSM    C7S10492   6.190   3.624   6.472  0.4707 -0.3124 -0.1214
  104OSM    H7S10493   6.290   3.646   6.515 -0.2219  2.1936  0.3774
  104OSM    H7T10494   6.135   3.721   6.467 -0.8468 -1.1009 -1.7503
  104OSM    C8S10495   6.208   3.588   6.324 -0.0092  0.2115  0.5880
  104OSM    H8S10496   6.108   3.566   6.280  0.5765  0.2823 -0.8247
  104OSM    H8T10497   6.263   3.493   6.311  0.0137  0.5429 -2.4284
  104OSM    C9S10498   6.262   3.711   6.249 -0.2779 -0.0504  0.5804
  104OSM    H9S10499   6.360   3.737   6.294  0.8082 -1.5637 -0.7750
  104OSM    H9T10500   6.194   3.795   6.275  0.8597  0.5629  1.6829
  104OSM   C10S10501   6.265   3.690   6.098 -0.2809  0.1236  0.5086
  104OSM   H10S10502   6.161   3.677   6.059 -0.7118  0.5843  1.4812
  104OSM   H10T10503   6.311   3.591   6.079 -1.8496 -0.3929 -0.8904
  104OSM   C11S10504   6.321   3.806   6.021 -0.7609 -0.1947  1.1761
  104OSM   H11S10505   6.426   3.819   6.056  0.2475  0.1595 -1.7535
  104OSM   H11T10506   6.274   3.903   6.050 -0.4270  0.5994 -0.8040
  104OSM   C12S10507   6.302   3.777   5.870  0.1550 -1.3169  0.1057
  104OSM   H12S10508   6.193   3.759   5.852  0.0067 -0.2694 -0.1194
  104OSM   H12T10509   6.341   3.675   5.850  0.5309 -1.7017  2.5429
  104OSM   C13S10510   6.360   3.895   5.787  0.8052  0.4697  0.2577
  104OSM   H13S10511   6.466   3.912   5.815  0.8013  0.1325  0.4813
  104OSM   H13T10512   6.294   3.984   5.803 -0.5243 -0.8161  2.4714
  104OSM   C14S10513   6.359   3.858   5.637 -0.0902  0.3487 -0.2687
  104OSM   H14S10514   6.381   3.946   5.573  2.9408  0.7623  1.2011
  104OSM   H14T10515   6.253   3.830   5.614  0.3052 -0.5904 -1.0459
  104OSM   C15S10516   6.459   3.744   5.602  0.4978 -0.4527 -0.5325
  104OSM   H15S10517   6.430   3.661   5.670 -0.3977 -1.0711 -1.6384
  104OSM   H15T10518   6.560   3.782   5.629 -0.6880  2.6357 -0.0463
  104OSM   C16S10519   6.447   3.703   5.451  0.4108 -0.4516 -0.5411
  104OSM   H16S10520   6.537   3.640   5.439  0.2453 -0.8561  0.3150
  104OSM   H16T10521   6.443   3.782   5.372  1.8997 -2.3590 -2.6510
  104OSM   C17S10522   6.325   3.619   5.432  0.0457  0.1908  0.0782
  104OSM   H17S10523   6.237   3.673   5.473 -0.5946 -0.0326 -0.9746
  104OSM   H17T10524   6.342   3.521   5.482 -0.6328 -0.3587 -0.7334
  104OSM   C18S10525   6.301   3.588   5.286  0.7157  1.1621  0.1992
  104OSM   H18S10526   6.399   3.560   5.243  1.1032  2.3936  0.2358
  104OSM   H18T10527   6.285   3.682   5.229  0.9141  0.8650 -0.3498
  104OSM   H18U10528   6.220   3.515   5.266  1.0940  0.6791  0.4054
  104OSM    C1F10529   6.212   4.036   6.718 -0.5804 -0.0848  0.1670
  104OSM     OF10530   6.300   4.028   6.803  0.4987  1.0235  0.5926
  104OSM    C2F10531   6.216   4.124   6.598  0.6622  0.7090  0.2364
  104OSM    H2F10532   6.120   4.179   6.592  0.1727  0.1499  2.1777
  104OSM    H2G10533   6.218   4.050   6.515  0.8688  2.1139 -1.0490
  104OSM    C3F10534   6.341   4.212   6.589  0.2504  0.2593  0.0632
  104OSM    H3F10535   6.428   4.143   6.601  0.0149 -0.1211 -0.4179
  104OSM    H3G10536   6.349   4.275   6.681  2.7975 -1.4903  1.1549
  104OSM    C4F10537   6.349   4.269   6.447 -0.0652 -0.4738 -0.3377
  104OSM    H4F10538   6.452   4.310   6.443  1.1700 -3.3076 -0.0429
  104OSM    H4G10539   6.283   4.358   6.445 -0.8502 -1.0029  0.9233
  104OSM    C5F10540   6.341   4.176   6.329  0.7666 -0.0810  0.1588
  104OSM    H5F10541   6.236   4.141   6.318  0.5923  0.8094 -1.1853
  104OSM    H5G10542   6.411   4.090   6.340  3.1129  1.5863 -0.8147
  104OSM    C6F10543   6.388   4.228   6.192  0.4071 -0.0503  0.6028
  104OSM    H6F10544   6.357   4.334   6.184 -0.5961 -0.3123  0.7678
  104OSM    H6G10545   6.335   4.176   6.109  0.8538  1.5275 -0.6938
  104OSM    C7F10546   6.537   4.208   6.169  0.0187  0.1031 -0.7854
  104OSM    H7F10547   6.561   4.100   6.177 -2.0680 -0.3054  0.7346
  104OSM    H7G10548   6.604   4.259   6.241  0.0563 -0.2357 -0.5825
  104OSM    C8F10549   6.569   4.259   6.027 -0.1964  0.0890 -0.3230
  104OSM    H8F10550   6.553   4.369   6.033 -3.3380 -0.1186 -2.3993
  104OSM    H8G10551   6.488   4.219   5.962 -0.6738 -0.7247  0.7312
  104OSM    C9F10552   6.706   4.214   5.985 -0.1365 -0.4132  0.0144
  104OSM    H9F10553   6.776   4.206   6.070 -0.2633  2.2978  0.4626
  104OSM   C10F10554   6.743   4.166   5.868 -0.8767  0.0990  0.4952
  104OSM   H10F10555   6.845   4.124   5.857 -0.6022  0.6175  1.0314
  104OSM   C11F10556   6.669   4.163   5.731 -0.1768  0.0266 -0.7722
  104OSM   H11F10557   6.648   4.261   5.683  4.0885  1.9475  0.7712
  104OSM   H11G10558   6.570   4.113   5.742 -0.5757  1.1866  1.6085
  104OSM   C12F10559   6.747   4.089   5.620  0.1668 -0.5905 -0.0025
  104OSM   H12F10560   6.760   3.980   5.637  1.1245 -0.6204 -0.8243
  104OSM   H12G10561   6.851   4.123   5.601  1.0187 -2.7481  0.5402
  104OSM   C13F10562   6.666   4.095   5.482 -0.6308  0.6082 -1.2285
  104OSM   H13F10563   6.630   4.200   5.478  0.4348  1.1321  1.1473
  104OSM   H13G10564   6.571   4.039   5.495 -0.7344  0.9394 -0.5267
  104OSM   C14F10565   6.741   4.074   5.355 -0.0200  0.1570 -0.1612
  104OSM   H14F10566   6.809   4.161   5.340  0.5946 -0.2425  0.2443
  104OSM   H14G10567   6.678   4.073   5.263  2.6297  0.3117 -2.1122
  104OSM   C15F10568   6.818   3.943   5.353 -0.3849  0.6271  0.1317
  104OSM   H15F10569   6.746   3.859   5.345  1.8512 -1.3402 -0.7489
  104OSM   H15G10570   6.869   3.926   5.450 -3.4289 -1.1120  1.5591
  104OSM   C16F10571   6.920   3.942   5.238 -0.0760 -0.7705 -0.2553
  104OSM   H16F10572   6.996   3.863   5.252 -1.7476 -2.3341  0.4764
  104OSM   H16G10573   6.967   4.041   5.220 -2.5860  0.8136  1.2435
  104OSM   C17F10574   6.848   3.893   5.112 -0.8423  0.2614 -0.9115
  104OSM   H17F10575   6.796   3.971   5.053 -0.8713  1.0117  0.0698
  104OSM   H17G10576   6.768   3.820   5.139  1.2813 -1.4643  1.1758
  104OSM   C18F10577   6.954   3.828   5.018 -0.3053 -0.3346  0.2329
  104OSM   H18F10578   6.999   3.730   5.046  1.1396  0.1033 -0.4822
  104OSM   H18G10579   7.033   3.905   5.001 -0.3970 -0.3841 -0.4368
  104OSM   H18H10580   6.910   3.810   4.918 -0.7174 -1.2794  0.5731
  105OSM      N10581   1.060   4.370   7.055 -0.3751 -0.1641  0.5655
  105OSM    C1510582   1.087   4.403   7.195  0.2090  0.1641 -0.2525
  105OSM   H15A10583   1.113   4.507   7.210 -3.2448  1.1631 -0.3225
  105OSM   H15B10584   1.161   4.336   7.237  0.4432 -0.9411 -2.3213
  105OSM   H15C10585   0.998   4.394   7.255  0.8318  3.0039  1.2628
  105OSM    C1410586   0.983   4.494   7.013  0.3163 -0.2235 -0.1820
  105OSM   H14A10587   0.953   4.488   6.909  1.2131 -0.0279 -0.4669
  105OSM   H14B10588   1.039   4.587   7.015 -2.6778  1.8181 -1.9397
  105OSM   H14C10589   0.908   4.517   7.086  2.5012  0.8451  1.8665
  105OSM    C1310590   1.181   4.372   6.969 -0.2333  0.0495  0.0855
  105OSM   H13A10591   1.157   4.367   6.864  2.1758 -1.4827 -0.4883
  105OSM   H13B10592   1.238   4.281   6.981 -2.4681 -1.5241 -0.6155
  105OSM   H13C10593   1.232   4.462   6.999 -1.4472 -0.1100  2.9647
  105OSM    C1210594   0.969   4.249   7.048 -0.2347  0.4750 -0.1852
  105OSM   H12A10595   0.950   4.228   6.943  1.5173  0.2732 -0.4918
  105OSM   H12B10596   0.870   4.271   7.086 -0.2552  0.7057 -0.3719
  105OSM    C1110597   1.014   4.114   7.115  0.0789  0.6527 -0.5839
  105OSM   H11A10598   0.931   4.040   7.119  0.1804  0.2681 -3.7417
  105OSM   H11B10599   1.016   4.141   7.223 -1.0948  1.1162 -0.6679
  105OSM      P10600   1.177   4.013   6.930 -0.2536  0.0719 -0.4284
  105OSM    O1310601   1.283   4.101   6.891 -0.2204  0.3181 -0.0968
  105OSM    O1410602   1.222   3.874   6.945  0.4437 -0.6109  0.0345
  105OSM    O1110603   1.051   4.036   6.838 -0.0568 -0.1991  0.4892
  105OSM    O1210604   1.136   4.060   7.083  0.2511  0.7086  0.3874
  105OSM    C1S10605   1.033   4.147   6.749 -0.8014 -0.3725 -0.0313
  105OSM    H1S10606   1.125   4.208   6.738 -1.0105  1.0187  4.3047
  105OSM    H1T10607   0.943   4.207   6.769 -0.2606 -0.1766  2.0161
  105OSM     NF10608   1.019   4.227   6.527 -0.2764 -0.2644  0.9232
  105OSM    HNF10609   0.942   4.285   6.505 -0.6538 -1.8489 -2.6794
  105OSM    C2S10610   1.004   4.110   6.607  0.1534  0.6455 -0.1457
  105OSM    H2S10611   1.084   4.034   6.594  0.5354  1.0132  0.0093
  105OSM    C3S10612   0.866   4.046   6.597  0.0026  0.4089  0.4037
  105OSM    H3S10613   0.790   4.126   6.610 -0.5546  0.1647 -1.1336
  105OSM     O310614   0.840   3.939   6.694  0.2231  0.1137 -0.0960
  105OSM    HO310615   0.901   3.955   6.767 -0.2720  0.2882  0.2805
  105OSM    C4S10616   0.862   3.984   6.458 -0.7919 -0.2858  0.1306
  105OSM    H4S10617   0.912   3.887   6.440  2.4992  1.2912 -0.0471
  105OSM    C5S10618   0.787   4.040   6.356  0.1835 -0.0393 -0.2896
  105OSM    H5S10619   0.725   4.130   6.373 -0.0624 -0.1660 -0.5122
  105OSM    C6S10620   0.766   3.978   6.220 -0.1570  0.2770 -0.2072
  105OSM    H6S10621   0.659   3.955   6.204  0.3547 -1.9467 -0.6936
  105OSM    H6T10622   0.807   3.875   6.212  1.0350  0.8705 -2.7666
  105OSM    C7S10623   0.800   4.051   6.091 -0.5697  0.0518 -0.4640
  105OSM    H7S10624   0.910   4.070   6.089 -0.7432  1.1063 -1.8092
  105OSM    H7T10625   0.748   4.149   6.096 -0.3790  0.1438 -0.2688
  105OSM    C8S10626   0.753   3.969   5.964 -0.6507 -0.2915 -0.6360
  105OSM    H8S10627   0.642   3.974   5.970 -0.6926  2.3507 -2.3242
  105OSM    H8T10628   0.805   3.872   5.979  1.4796  1.1532  2.7473
  105OSM    C9S10629   0.802   4.027   5.833 -0.2891 -0.4187 -0.1971
  105OSM    H9S10630   0.898   3.977   5.808  0.5456  1.5648 -1.2265
  105OSM    H9T10631   0.819   4.136   5.847 -1.4146 -0.5321  2.6870
  105OSM   C10S10632   0.707   4.008   5.714  0.1634 -0.1866 -0.3059
  105OSM   H10S10633   0.619   4.071   5.740 -0.5078 -1.8902  1.9508
  105OSM   H10T10634   0.677   3.902   5.701  2.4169 -0.7985 -0.9630
  105OSM   C11S10635   0.766   4.050   5.574  0.2085 -0.4549  0.6999
  105OSM   H11S10636   0.849   3.977   5.564  0.4545  0.0109 -0.8889
  105OSM   H11T10637   0.807   4.153   5.587 -0.0706 -0.4880  1.9508
  105OSM   C12S10638   0.674   4.031   5.456  0.9428 -0.7055 -0.2781
  105OSM   H12S10639   0.646   3.923   5.459  0.0778 -0.5315 -1.1877
  105OSM   H12T10640   0.727   4.049   5.360  1.1944 -2.1941 -0.4456
  105OSM   C13S10641   0.544   4.112   5.447  0.3392  0.1362 -0.0910
  105OSM   H13S10642   0.582   4.216   5.435 -0.4176  0.5762  1.1358
  105OSM   H13T10643   0.481   4.103   5.539 -2.0178 -2.4907 -1.8197
  105OSM   C14S10644   0.456   4.070   5.328  0.5663  0.5227 -0.7367
  105OSM   H14S10645   0.426   3.963   5.329  2.6450 -0.1107 -1.1526
  105OSM   H14T10646   0.516   4.083   5.235 -0.9618  0.2634 -1.8014
  105OSM   C15S10647   0.338   4.169   5.321  0.0171  0.4303 -0.6384
  105OSM   H15S10648   0.263   4.157   5.403 -0.4526  1.9232 -0.8158
  105OSM   H15T10649   0.286   4.149   5.225  2.5081 -2.0163 -1.5900
  105OSM   C16S10650   0.372   4.324   5.316  0.5783  0.0119 -0.1405
  105OSM   H16S10651   0.471   4.335   5.268  1.9142 -1.9300  1.9751
  105OSM   H16T10652   0.386   4.362   5.419 -2.2046  0.6093  0.1109
  105OSM   C17S10653   0.268   4.398   5.236  0.2347 -0.7673 -0.1318
  105OSM   H17S10654   0.266   4.381   5.127  0.2240 -0.3865 -0.1939
  105OSM   H17T10655   0.306   4.503   5.235  1.9316 -1.3150  1.1125
  105OSM   C18S10656   0.122   4.387   5.289  0.2675  0.0214  0.0832
  105OSM   H18S10657   0.113   4.425   5.393  0.2353  2.2004 -0.6667
  105OSM   H18T10658   0.070   4.291   5.268  0.5755  0.0088 -0.6850
  105OSM   H18U10659   0.055   4.458   5.235 -0.6279 -0.5329  0.4353
  105OSM    C1F10660   1.132   4.280   6.474 -0.1019 -0.3908  0.4134
  105OSM     OF10661   1.238   4.228   6.506  0.3118 -0.0541 -0.0428
  105OSM    C2F10662   1.117   4.403   6.388 -0.4722  0.7223  0.0957
  105OSM    H2F10663   1.054   4.474   6.447 -2.2550  0.6387 -1.6177
  105OSM    H2G10664   1.067   4.370   6.294  0.8584 -0.0778 -0.3564
  105OSM    C3F10665   1.254   4.465   6.351 -0.0292  1.6327  1.3857
  105OSM    H3F10666   1.311   4.390   6.292  0.6377  2.8679  0.4253
  105OSM    H3G10667   1.310   4.507   6.437  0.4934  1.1353  1.2905
  105OSM    C4F10668   1.223   4.584   6.263  0.2098  0.8237  0.7969
  105OSM    H4F10669   1.150   4.651   6.313  1.6754  2.0241  1.4086
  105OSM    H4G10670   1.171   4.558   6.168 -0.7191  0.2712  1.4412
  105OSM    C5F10671   1.347   4.683   6.237  0.0319 -0.4163  0.9799
  105OSM    H5F10672   1.422   4.623   6.182 -0.4267  0.2371 -0.4218
  105OSM    H5G10673   1.401   4.718   6.327 -0.1631  1.2874  0.4710
  105OSM    C6F10674   1.312   4.807   6.140 -0.1330  0.5622  0.4203
  105OSM    H6F10675   1.251   4.878   6.200 -1.1514  1.5430 -1.6850
  105OSM    H6G10676   1.259   4.770   6.050  0.2058 -3.1055  1.5433
  105OSM    C7F10677   1.432   4.897   6.100 -0.2094 -0.2905 -0.0358
  105OSM    H7F10678   1.483   4.839   6.021 -3.3366 -1.1915 -1.5703
  105OSM    H7G10679   1.497   4.923   6.186 -2.5774 -2.0378  2.4886
  105OSM    C8F10680   1.376   5.024   6.022 -0.6045  0.6217 -0.0800
  105OSM    H8F10681   1.294   5.073   6.078 -2.0768 -0.0953 -1.5027
  105OSM    H8G10682   1.318   4.985   5.935 -2.5893  2.8921  0.1228
  105OSM    C9F10683   1.481   5.119   5.976  0.3518 -0.1008  0.1312
  105OSM    H9F10684   1.550   5.147   6.057  0.8464 -2.2183  0.4984
  105OSM   C10F10685   1.511   5.161   5.856 -0.3360 -0.1262  0.1473
  105OSM   H10F10686   1.585   5.241   5.844  0.9794 -1.5227 -1.6138
  105OSM   C11F10687   1.440   5.123   5.731  0.2749  0.4047 -0.5190
  105OSM   H11F10688   1.434   5.215   5.668  0.0296 -0.1452 -1.3103
  105OSM   H11G10689   1.335   5.092   5.749  0.2291  0.3105 -0.9286
  105OSM   C12F10690   1.522   5.010   5.648  0.3287 -0.0262 -0.0977
  105OSM   H12F10691   1.522   4.922   5.715  0.4172  0.1897  0.1864
  105OSM   H12G10692   1.625   5.050   5.635  0.6263  0.2654  2.6095
  105OSM   C13F10693   1.457   4.960   5.519 -0.3183 -0.3146  0.7663
  105OSM   H13F10694   1.362   4.906   5.541 -1.3665  0.0071 -2.3763
  105OSM   H13G10695   1.528   4.894   5.464 -1.9750 -0.3437 -1.5464
  105OSM   C14F10696   1.422   5.077   5.417 -0.0943  0.3899  0.3610
  105OSM   H14F10697   1.348   5.145   5.465 -0.7244  1.7897 -2.4016
  105OSM   H14G10698   1.373   5.033   5.328 -1.4246 -1.9596  2.1479
  105OSM   C15F10699   1.544   5.165   5.375 -0.3107  0.0329  0.5152
  105OSM   H15F10700   1.620   5.096   5.333  0.7684  1.1360  0.5730
  105OSM   H15G10701   1.583   5.224   5.461 -2.3022  1.4964  0.4970
  105OSM   C16F10702   1.514   5.272   5.268 -0.1686  0.1125  0.1681
  105OSM   H16F10703   1.441   5.344   5.313  0.5498  0.6340  0.5289
  105OSM   H16G10704   1.455   5.224   5.188 -1.2197  0.8183  0.4868
  105OSM   C17F10705   1.629   5.346   5.209 -0.4044 -0.4127 -0.4787
  105OSM   H17F10706   1.709   5.276   5.178  0.8071  0.5447  0.3885
  105OSM   H17G10707   1.673   5.410   5.289 -0.0013 -2.0565  0.6466
  105OSM   C18F10708   1.584   5.428   5.090  0.1659 -0.2752  0.1009
  105OSM   H18F10709   1.513   5.508   5.120  0.4796  0.3444 -0.7781
  105OSM   H18G10710   1.525   5.366   5.018 -1.9482 -0.5590  1.9712
  105OSM   H18H10711   1.669   5.480   5.041  0.4769  0.6510  1.5658
  106OSM      N10712   6.098   2.720   7.396  0.1997  0.5074 -0.1252
  106OSM    C1510713   6.228   2.650   7.360  0.6838 -0.3773  0.0624
  106OSM   H15A10714   6.223   2.542   7.355 -0.6678 -0.3317 -0.1390
  106OSM   H15B10715   6.290   2.670   7.446 -0.7775  0.4549  0.9643
  106OSM   H15C10716   6.252   2.694   7.265 -0.9968 -1.7623 -1.0837
  106OSM    C1410717   6.064   2.670   7.528 -0.0672 -0.3324 -0.3851
  106OSM   H14A10718   6.097   2.568   7.535  0.7629 -0.0868 -0.5964
  106OSM   H14B10719   5.960   2.667   7.555 -0.2274  1.1694 -0.7350
  106OSM   H14C10720   6.124   2.702   7.612  0.8803 -2.5508 -0.1687
  106OSM    C1310721   6.133   2.866   7.407 -0.3460 -0.2485  0.7616
  106OSM   H13A10722   6.175   2.909   7.317 -0.2577  0.6262  1.2103
  106OSM   H13B10723   6.215   2.881   7.476  0.5173  2.4324 -0.6754
  106OSM   H13C10724   6.044   2.925   7.422  0.2558  1.2401 -1.1568
  106OSM    C1210725   5.983   2.692   7.294  0.4132 -0.3806  0.3381
  106OSM   H12A10726   5.902   2.759   7.322 -0.2551 -0.4809 -1.2885
  106OSM   H12B10727   5.941   2.593   7.306 -0.2771 -0.4438 -2.0816
  106OSM    C1110728   6.010   2.704   7.145  0.4940 -0.2860  0.1351
  106OSM   H11A10729   6.065   2.800   7.134 -1.3158  0.6799 -1.0542
  106OSM   H11B10730   5.918   2.707   7.082  0.2137 -1.5446  0.4607
  106OSM      P10731   6.021   2.458   7.048  0.1689  0.3827 -0.3260
  106OSM    O1310732   6.124   2.368   6.988 -0.3615 -0.1112  0.4055
  106OSM    O1410733   5.943   2.391   7.150  0.4157  0.5375 -0.2451
  106OSM    O1110734   5.929   2.495   6.934 -0.3444 -0.5009  0.5204
  106OSM    O1210735   6.084   2.591   7.100  0.3313 -0.2713  0.5287
  106OSM    C1S10736   5.955   2.588   6.829  0.5992 -0.1610 -0.0919
  106OSM    H1S10737   6.062   2.621   6.830  0.5840 -0.1110  0.0636
  106OSM    H1T10738   5.900   2.684   6.843  1.5993  0.2377  1.5098
  106OSM     NF10739   5.959   2.634   6.589  0.5700 -0.2374 -0.2800
  106OSM    HNF10740   5.876   2.673   6.549 -0.2213 -1.4932  0.0891
  106OSM    C2S10741   5.933   2.534   6.687  1.4577  0.4426  0.2991
  106OSM    H2S10742   5.999   2.446   6.671 -1.9430 -1.8437 -2.6636
  106OSM    C3S10743   5.789   2.467   6.675 -0.2322  0.0151 -0.3733
  106OSM    H3S10744   5.717   2.552   6.682 -0.4826 -0.0617 -1.7567
  106OSM     O310745   5.748   2.372   6.769 -0.5842  0.4888  0.0846
  106OSM    HO310746   5.824   2.379   6.828 -0.8226  0.9272  0.3423
  106OSM    C4S10747   5.767   2.416   6.533  0.0698  0.1156 -0.0719
  106OSM    H4S10748   5.726   2.494   6.467 -0.8349 -0.6647 -0.4438
  106OSM    C5S10749   5.768   2.287   6.488 -0.0942 -0.4117 -0.3081
  106OSM    H5S10750   5.810   2.211   6.555  0.8151  1.8981  1.8765
  106OSM    C6S10751   5.739   2.239   6.342 -0.0652  0.3275 -0.0695
  106OSM    H6S10752   5.663   2.159   6.327  0.8648 -0.4876 -0.5332
  106OSM    H6T10753   5.833   2.189   6.312  1.1129  1.9064  0.8131
  106OSM    C7S10754   5.709   2.353   6.244  0.0790  0.1216 -0.1734
  106OSM    H7S10755   5.788   2.431   6.244  2.1099 -1.7798  2.2928
  106OSM    H7T10756   5.610   2.393   6.276 -0.3845 -1.5320  0.5928
  106OSM    C8S10757   5.679   2.305   6.102 -0.0223 -0.3262  0.0704
  106OSM    H8S10758   5.586   2.245   6.107  0.0107 -0.3473  0.5379
  106OSM    H8T10759   5.762   2.234   6.079 -1.2837 -1.2966 -1.7866
  106OSM    C9S10760   5.670   2.408   5.993  0.2830 -0.0447  0.0781
  106OSM    H9S10761   5.694   2.357   5.897 -1.9666 -1.6225  0.2554
  106OSM    H9T10762   5.734   2.497   6.009 -1.6856  1.4207  0.0790
  106OSM   C10S10763   5.524   2.458   5.964 -0.3084 -0.5696  0.4798
  106OSM   H10S10764   5.487   2.523   6.046 -1.0811 -2.5647  1.7964
  106OSM   H10T10765   5.453   2.372   5.961 -0.6212 -0.3562  1.4393
  106OSM   C11S10766   5.510   2.526   5.828  0.1743  0.2866 -0.1110
  106OSM   H11S10767   5.578   2.613   5.820  3.4341 -2.0915 -0.4270
  106OSM   H11T10768   5.407   2.567   5.824  0.6598  1.6913  1.0266
  106OSM   C12S10769   5.534   2.431   5.705 -0.1587  0.0242  0.0317
  106OSM   H12S10770   5.464   2.345   5.712 -1.3581  0.7690 -1.7964
  106OSM   H12T10771   5.640   2.402   5.696 -0.2540  0.0657 -1.7037
  106OSM   C13S10772   5.513   2.505   5.575  0.1532  0.0546  0.1550
  106OSM   H13S10773   5.577   2.596   5.567 -0.4712  0.4756 -0.1512
  106OSM   H13T10774   5.407   2.539   5.578  0.3206  0.5955  0.1119
  106OSM   C14S10775   5.551   2.420   5.452 -0.2535  0.0835  0.7058
  106OSM   H14S10776   5.482   2.333   5.448 -1.2548  0.8898 -1.1621
  106OSM   H14T10777   5.653   2.377   5.457  0.4128  1.4679 -0.3591
  106OSM   C15S10778   5.534   2.501   5.322  1.0670  0.3317  0.2600
  106OSM   H15S10779   5.578   2.456   5.231 -0.1639  1.0722 -0.7273
  106OSM   H15T10780   5.594   2.594   5.334 -2.8832  3.3909 -1.4348
  106OSM   C16S10781   5.391   2.543   5.285 -0.3205  0.2743  0.4899
  106OSM   H16S10782   5.398   2.618   5.204  1.2104 -0.3587  0.0159
  106OSM   H16T10783   5.334   2.605   5.358 -2.6176  1.4747 -2.1375
  106OSM   C17S10784   5.311   2.425   5.234  0.2691  0.1678  0.5949
  106OSM   H17S10785   5.295   2.350   5.315 -1.2722 -0.1258  0.0516
  106OSM   H17T10786   5.371   2.376   5.155 -0.5503 -2.3044  1.4195
  106OSM   C18S10787   5.180   2.453   5.157 -0.3024 -0.2091  0.2277
  106OSM   H18S10788   5.140   2.368   5.097  1.5500 -0.9867  0.0184
  106OSM   H18T10789   5.205   2.529   5.080  0.8843 -0.3704  0.4302
  106OSM   H18U10790   5.104   2.503   5.219  1.8755  1.4597  1.7101
  106OSM    C1F10791   6.077   2.680   6.558  0.5618 -0.2275  0.5507
  106OSM     OF10792   6.177   2.624   6.602 -0.0438  0.0684 -0.4599
  106OSM    C2F10793   6.097   2.798   6.458  0.4347  0.4165  0.2521
  106OSM    H2F10794   6.140   2.882   6.516  0.6755  0.8638 -0.5542
  106OSM    H2G10795   5.994   2.826   6.427  1.1570  0.6718 -2.1435
  106OSM    C3F10796   6.194   2.770   6.334  0.0790 -0.7697 -0.1337
  106OSM    H3F10797   6.157   2.678   6.284  0.7973 -0.9733 -0.2983
  106OSM    H3G10798   6.297   2.759   6.374 -0.1034  0.3078  0.6753
  106OSM    C4F10799   6.188   2.891   6.234 -0.0897 -0.4088  0.4184
  106OSM    H4F10800   6.212   2.990   6.280  1.0643 -0.3985 -0.1781
  106OSM    H4G10801   6.080   2.892   6.211 -0.3342 -0.1931  1.4950
  106OSM    C5F10802   6.270   2.872   6.106  0.0611  0.0656 -0.4839
  106OSM    H5F10803   6.260   2.960   6.041 -0.1243 -1.0421 -2.0026
  106OSM    H5G10804   6.240   2.781   6.049  1.4601 -0.2248 -0.8028
  106OSM    C6F10805   6.424   2.843   6.136 -0.2472  0.0167  0.4422
  106OSM    H6F10806   6.450   2.776   6.221 -2.0065  0.6352  1.5339
  106OSM    H6G10807   6.467   2.941   6.164 -0.6435  0.2630  0.1903
  106OSM    C7F10808   6.488   2.798   6.000 -0.9514  0.1908  0.1013
  106OSM    H7F10809   6.595   2.780   6.025 -0.1843  2.0234 -1.5868
  106OSM    H7G10810   6.491   2.878   5.922 -0.6954  0.4031  0.3272
  106OSM    C8F10811   6.457   2.657   5.938 -0.3036  0.4158 -0.2192
  106OSM    H8F10812   6.447   2.587   6.024  4.0207  0.3666  0.4496
  106OSM    H8G10813   6.547   2.622   5.884 -1.3203  0.2363 -1.8483
  106OSM    C9F10814   6.346   2.650   5.838 -0.3072  1.0299  0.4418
  106OSM    H9F10815   6.251   2.686   5.880 -0.8987 -0.9063  0.8514
  106OSM   C10F10816   6.345   2.590   5.716 -0.2578  0.1997 -0.9372
  106OSM   H10F10817   6.248   2.571   5.667 -0.5081 -0.2224 -0.2878
  106OSM   C11F10818   6.467   2.544   5.641 -0.3817  0.4827 -0.1307
  106OSM   H11F10819   6.471   2.433   5.643  1.7966  0.5158  0.2963
  106OSM   H11G10820   6.564   2.572   5.689 -0.7349 -0.2916  1.0724
  106OSM   C12F10821   6.476   2.613   5.501 -0.1900 -0.4516 -0.8736
  106OSM   H12F10822   6.461   2.723   5.506 -1.8874 -0.7170  0.7069
  106OSM   H12G10823   6.394   2.568   5.440  0.9035 -1.3722 -1.7159
  106OSM   C13F10824   6.604   2.586   5.423  0.7355 -0.1376  0.0124
  106OSM   H13F10825   6.592   2.499   5.354  1.3223 -2.4827  2.6770
  106OSM   H13G10826   6.680   2.560   5.500  1.2919  2.6797  0.5156
  106OSM   C14F10827   6.666   2.701   5.342  0.0424 -0.0557 -0.1891
  106OSM   H14F10828   6.755   2.643   5.309  0.2361  0.7400 -1.1456
  106OSM   H14G10829   6.702   2.778   5.413  2.7137 -0.3453 -1.1205
  106OSM   C15F10830   6.582   2.751   5.230 -0.2512  0.1327  0.6172
  106OSM   H15F10831   6.491   2.803   5.266  1.1044  1.3132  2.5268
  106OSM   H15G10832   6.554   2.664   5.166  0.7692  0.3692 -0.1796
  106OSM   C16F10833   6.655   2.843   5.131  0.2033 -0.3056  0.4074
  106OSM   H16F10834   6.755   2.805   5.104  0.2561  0.6311 -0.7800
  106OSM   H16G10835   6.669   2.939   5.186 -0.7658 -0.8095  1.5946
  106OSM   C17F10836   6.575   2.875   5.009 -0.2080 -0.4395 -0.2003
  106OSM   H17F10837   6.489   2.936   5.041 -0.6748 -0.2410 -1.7345
  106OSM   H17G10838   6.525   2.782   4.973  0.6272 -1.0501  0.1755
  106OSM   C18F10839   6.654   2.953   4.900  0.0744  0.3723  0.4455
  106OSM   H18F10840   6.688   3.053   4.936 -0.9823  0.6456  0.7321
  106OSM   H18G10841   6.593   2.975   4.809 -0.0652  0.8626  0.6525
  106OSM   H18H10842   6.741   2.890   4.871  0.4994  1.4768 -0.7832
  107OSM      N10843   0.317   0.916   6.802  0.2312 -0.1850  0.8729
  107OSM    C1510844   0.182   0.976   6.833 -0.4617  0.2900 -0.5103
  107OSM   H15A10845   0.180   1.084   6.834 -1.2901  0.2817 -0.3044
  107OSM   H15B10846   0.152   0.942   6.931 -1.7442 -1.3346 -1.4118
  107OSM   H15C10847   0.099   0.957   6.765 -0.4318  2.4063 -1.2140
  107OSM    C1410848   0.408   0.966   6.906  0.4456  0.4688  0.1130
  107OSM   H14A10849   0.370   0.920   6.996 -0.0958 -0.0989 -0.3892
  107OSM   H14B10850   0.400   1.073   6.921 -1.0823  0.5570 -1.0319
  107OSM   H14C10851   0.510   0.937   6.891  0.8670  1.6622  0.5687
  107OSM    C1310852   0.303   0.763   6.803 -0.4243  0.8146 -0.4806
  107OSM   H13A10853   0.232   0.729   6.730 -0.3253 -1.4289  0.3932
  107OSM   H13B10854   0.264   0.741   6.901 -0.0593 -0.0661 -0.5300
  107OSM   H13C10855   0.398   0.712   6.797 -0.4661 -0.3788  4.4427
  107OSM    C1210856   0.376   0.950   6.663  0.6543 -0.2440  0.3623
  107OSM   H12A10857   0.297   0.909   6.603  1.6897 -0.0538 -1.1775
  107OSM   H12B10858   0.468   0.900   6.637 -1.1993 -3.7973  0.0243
  107OSM    C1110859   0.388   1.098   6.625  0.8884  0.5026 -0.2401
  107OSM   H11A10860   0.293   1.147   6.657  0.2854 -0.6393 -0.2450
  107OSM   H11B10861   0.402   1.110   6.516  1.1236 -2.6944 -0.6425
  107OSM      P10862   0.648   1.173   6.651 -0.2734 -0.1100 -0.0927
  107OSM    O1310863   0.721   1.283   6.720  0.2712 -0.5114  0.9262
  107OSM    O1410864   0.714   1.044   6.671  0.9581  0.2633 -0.4783
  107OSM    O1110865   0.631   1.187   6.489  0.0374  0.5195 -0.5583
  107OSM    O1210866   0.499   1.158   6.701  0.1496 -0.3916 -0.2249
  107OSM    C1S10867   0.579   1.316   6.449  0.6035  1.0347  0.0370
  107OSM    H1S10868   0.634   1.398   6.501  1.6161 -0.1737  0.9172
  107OSM    H1T10869   0.471   1.322   6.474  0.4249 -0.2733 -0.3571
  107OSM     NF10870   0.582   1.468   6.258 -0.5840  0.5450 -0.5673
  107OSM    HNF10871   0.511   1.505   6.199 -0.8181 -0.7879 -1.1558
  107OSM    C2S10872   0.585   1.329   6.293  0.1726  0.4696 -0.0068
  107OSM    H2S10873   0.680   1.284   6.257 -1.0837 -3.7249  1.3577
  107OSM    C3S10874   0.480   1.246   6.228  0.0409 -0.2577  0.0693
  107OSM    H3S10875   0.383   1.279   6.272  1.5868  0.5552  3.1685
  107OSM     O310876   0.482   1.105   6.269 -0.9189  0.2191 -0.2130
  107OSM    HO310877   0.547   1.109   6.339 -0.2034  1.5327 -0.9128
  107OSM    C4S10878   0.488   1.253   6.072  0.4973  0.0074  0.7057
  107OSM    H4S10879   0.419   1.328   6.032 -0.4473 -1.0065  0.3816
  107OSM    C5S10880   0.556   1.167   5.991 -0.1487 -0.1728 -0.4809
  107OSM    H5S10881   0.628   1.102   6.042 -0.8599 -2.1641 -1.8931
  107OSM    C6S10882   0.552   1.164   5.844  0.4898 -0.0930  0.2091
  107OSM    H6S10883   0.502   1.071   5.809 -1.6822  1.7470 -1.9903
  107OSM    H6T10884   0.652   1.161   5.794  0.1903  0.0894 -0.4176
  107OSM    C7S10885   0.484   1.276   5.760  0.2009  0.2098  0.0756
  107OSM    H7S10886   0.545   1.366   5.783 -0.2313  0.9503 -1.5403
  107OSM    H7T10887   0.376   1.297   5.778  0.5949  0.8642  1.9307
  107OSM    C8S10888   0.499   1.255   5.612 -0.3242 -0.6146  0.2588
  107OSM    H8S10889   0.602   1.214   5.598 -0.3309 -0.8362  0.8582
  107OSM    H8T10890   0.493   1.356   5.565 -1.2977 -1.4196 -1.4349
  107OSM    C9S10891   0.395   1.155   5.547 -0.2098  0.7262  0.2622
  107OSM    H9S10892   0.296   1.204   5.541 -1.7889 -2.4262 -3.5218
  107OSM    H9T10893   0.371   1.072   5.617 -0.4480  2.5875  2.5281
  107OSM   C10S10894   0.433   1.106   5.407  0.1078 -0.2235  0.4304
  107OSM   H10S10895   0.534   1.059   5.412 -1.1770 -3.4725 -0.9476
  107OSM   H10T10896   0.465   1.202   5.361  2.5022 -0.8826  0.5777
  107OSM   C11S10897   0.327   1.018   5.331 -0.1986 -0.3383  0.3162
  107OSM   H11S10898   0.374   0.984   5.236  0.5386 -0.7565  0.8146
  107OSM   H11T10899   0.238   1.078   5.301  1.0080  0.1654 -2.5106
  107OSM   C12S10900   0.278   0.890   5.410 -0.7169 -0.0946  0.1092
  107OSM   H12S10901   0.227   0.920   5.504  1.3985 -0.1724  1.3398
  107OSM   H12T10902   0.360   0.824   5.445 -2.4653 -1.3040  2.1383
  107OSM   C13S10903   0.194   0.793   5.319  0.4090 -0.3067 -0.7295
  107OSM   H13S10904   0.248   0.762   5.228  0.8029 -0.4800 -0.4387
  107OSM   H13T10905   0.102   0.849   5.293  0.8630 -0.2316 -2.2498
  107OSM   C14S10906   0.158   0.661   5.386 -0.4411  0.7494 -0.5492
  107OSM   H14S10907   0.149   0.661   5.497  0.7603 -1.2619 -0.4177
  107OSM   H14T10908   0.245   0.597   5.363  0.0236  1.6152 -1.2729
  107OSM   C15S10909   0.039   0.591   5.327 -0.0759  0.4478  0.0732
  107OSM   H15S10910   0.055   0.550   5.225 -3.3027 -1.2452  0.1246
  107OSM   H15T10911  -0.051   0.657   5.323 -0.3617  0.1242  1.0453
  107OSM   C16S10912  -0.006   0.469   5.406  0.3764 -0.4418 -0.1277
  107OSM   H16S10913  -0.009   0.518   5.506  0.5018  0.2055 -0.4371
  107OSM   H16T10914   0.078   0.397   5.408 -0.1399 -1.1456 -2.0491
  107OSM   C17S10915  -0.135   0.399   5.365 -0.0182 -0.2569  0.2686
  107OSM   H17S10916  -0.139   0.366   5.259 -1.3225  1.0108 -0.0940
  107OSM   H17T10917  -0.214   0.476   5.373 -0.2846 -0.6309  1.3802
  107OSM   C18S10918  -0.166   0.283   5.458  0.6580 -0.4301  0.1036
  107OSM   H18S10919  -0.132   0.186   5.417  1.6574  0.7916 -2.1364
  107OSM   H18T10920  -0.277   0.275   5.465  0.6911 -2.0696 -0.7286
  107OSM   H18U10921  -0.122   0.293   5.559  0.3202  1.1207  0.1269
  107OSM    C1F10922   0.673   1.555   6.301  0.1635 -1.3294  0.4031
  107OSM     OF10923   0.770   1.532   6.367 -0.7183  0.3840 -0.0205
  107OSM    C2F10924   0.641   1.695   6.267 -0.1270  0.0203 -0.3459
  107OSM    H2F10925   0.662   1.760   6.354 -0.3343 -1.2929  0.7134
  107OSM    H2G10926   0.533   1.698   6.240  0.5980  1.8557 -3.6511
  107OSM    C3F10927   0.726   1.739   6.146  0.0599  0.5748 -0.0157
  107OSM    H3F10928   0.830   1.744   6.183 -0.7752 -1.0281  2.8965
  107OSM    H3G10929   0.694   1.837   6.104 -0.6501 -0.5113 -2.1023
  107OSM    C4F10930   0.719   1.645   6.021  0.1943 -0.2591 -0.1858
  107OSM    H4F10931   0.618   1.599   6.029 -0.1408  0.5781  0.5043
  107OSM    H4G10932   0.803   1.572   6.026 -0.1570 -0.6743 -0.2839
  107OSM    C5F10933   0.741   1.723   5.890 -0.3547  0.2008 -0.2396
  107OSM    H5F10934   0.845   1.759   5.896  0.4056 -2.0356  0.9421
  107OSM    H5G10935   0.668   1.807   5.897 -0.1089  0.3223  1.0620
  107OSM    C6F10936   0.718   1.642   5.762 -0.3465  0.6909  0.4029
  107OSM    H6F10937   0.669   1.702   5.681  1.5918  0.6244 -0.8821
  107OSM    H6G10938   0.658   1.551   5.783  1.6593 -0.4748  1.2729
  107OSM    C7F10939   0.846   1.571   5.695 -0.2437  0.3491 -0.5245
  107OSM    H7F10940   0.799   1.498   5.626 -1.5013 -1.3429  1.9653
  107OSM    H7G10941   0.900   1.517   5.777  0.3761  0.5091 -0.8259
  107OSM    C8F10942   0.944   1.676   5.640  0.2701  0.4313  0.7345
  107OSM    H8F10943   1.040   1.628   5.612 -0.0033  0.2749  0.0287
  107OSM    H8G10944   0.968   1.760   5.708 -1.7625  1.7800 -0.0758
  107OSM    C9F10945   0.886   1.742   5.519 -0.6854  1.0902 -0.1171
  107OSM    H9F10946   0.821   1.829   5.540  0.0431  1.4167  0.8458
  107OSM   C10F10947   0.912   1.706   5.387 -0.6214 -0.0273  0.4577
  107OSM   H10F10948   0.853   1.758   5.309 -0.9249 -0.1712  0.5892
  107OSM   C11F10949   1.013   1.608   5.333  0.3126 -0.3136 -0.6649
  107OSM   H11F10950   1.081   1.588   5.419 -1.8727  0.6458  1.3963
  107OSM   H11G10951   1.085   1.649   5.259 -1.9321  2.9565 -1.2480
  107OSM   C12F10952   0.942   1.484   5.281 -0.2202 -0.7160  0.3150
  107OSM   H12F10953   0.882   1.428   5.356  1.7808 -1.0437  1.7574
  107OSM   H12G10954   1.014   1.406   5.249  2.6704  1.6078  0.6506
  107OSM   C13F10955   0.873   1.504   5.140 -0.1134 -0.9703 -0.9175
  107OSM   H13F10956   0.947   1.509   5.057 -1.0281  1.7951 -1.6854
  107OSM   H13G10957   0.822   1.602   5.150  0.6843 -0.5458 -0.8666
  107OSM   C14F10958   0.761   1.407   5.107 -0.3298  0.8880 -0.4564
  107OSM   H14F10959   0.694   1.434   5.023 -1.0582  2.4490  0.5702
  107OSM   H14G10960   0.683   1.408   5.186 -0.1580 -0.4788 -0.2465
  107OSM   C15F10961   0.799   1.258   5.103 -0.0662 -0.1215 -0.0872
  107OSM   H15F10962   0.854   1.231   5.196  0.5196  0.4392 -0.2631
  107OSM   H15G10963   0.864   1.245   5.014  0.5555  0.0604  0.3357
  107OSM   C16F10964   0.679   1.172   5.079 -0.3147 -0.3092 -0.3144
  107OSM   H16F10965   0.603   1.211   5.150 -0.9224  0.0467 -1.1441
  107OSM   H16G10966   0.695   1.070   5.121  0.4090 -0.1408 -0.1720
  107OSM   C17F10967   0.635   1.152   4.934 -0.4449 -0.6488 -0.4952
  107OSM   H17F10968   0.718   1.090   4.895  1.1752 -0.1322  1.8933
  107OSM   H17G10969   0.639   1.253   4.887  0.8001 -0.3720  0.1523
  107OSM   C18F10970   0.501   1.089   4.910  1.1467  0.7143 -0.5301
  107OSM   H18F10971   0.489   1.035   4.813  0.9874  0.4776 -0.3800
  107OSM   H18G10972   0.416   1.160   4.901  0.9446  0.4566 -0.6791
  107OSM   H18H10973   0.479   1.013   4.988 -0.4664 -0.1862 -1.7722
  108OSM      N10974   1.573   0.874   7.424 -0.3011  0.1722 -0.9286
  108OSM    C1510975   1.542   0.906   7.568  1.0814  0.3068  0.2596
  108OSM   H15A10976   1.449   0.960   7.564  2.2464  2.4749  1.0048
  108OSM   H15B10977   1.603   0.984   7.609  0.1944  0.6257  0.9936
  108OSM   H15C10978   1.547   0.832   7.647  0.6481  0.0642  0.0658
  108OSM    C1410979   1.551   0.996   7.343 -0.5054  0.2024 -0.0270
  108OSM   H14A10980   1.601   0.988   7.248 -3.8710 -2.0160 -1.8051
  108OSM   H14B10981   1.593   1.081   7.394 -0.8680  0.2615  0.1752
  108OSM   H14C10982   1.447   1.001   7.314 -0.5046 -1.0163 -0.3032
  108OSM    C1310983   1.724   0.845   7.423  0.1415 -0.0774 -0.5382
  108OSM   H13A10984   1.777   0.933   7.457  0.4162 -0.2285 -0.5686
  108OSM   H13B10985   1.763   0.829   7.324  1.4973  0.6938 -0.1688
  108OSM   H13C10986   1.758   0.761   7.483 -0.1289  0.0153 -0.2536
  108OSM    C1210987   1.510   0.744   7.376  0.0650  1.1850  0.1627
  108OSM   H12A10988   1.403   0.757   7.378 -0.1541 -0.5053  0.5829
  108OSM   H12B10989   1.540   0.669   7.447 -0.0171 -0.0987 -1.1081
  108OSM    C1110990   1.558   0.682   7.241  0.6293 -0.2951  0.6042
  108OSM   H11A10991   1.508   0.585   7.222 -1.0435  0.9502 -1.8812
  108OSM   H11B10992   1.668   0.666   7.246  0.5535 -1.9591 -1.5399
  108OSM      P10993   1.620   0.819   7.026 -0.3641 -0.1532  0.2913
  108OSM    O1310994   1.553   0.899   6.924  0.5662  0.1495 -0.4323
  108OSM    O1410995   1.737   0.878   7.091 -0.4362 -0.0744  0.2574
  108OSM    O1110996   1.658   0.688   6.956 -0.4981 -0.1235 -0.2713
  108OSM    O1210997   1.515   0.771   7.132  0.0144  0.1127 -0.5521
  108OSM    C1S10998   1.567   0.591   6.896  0.0348 -0.1793 -0.3575
  108OSM    H1S10999   1.465   0.587   6.939 -0.5494 -1.9177 -1.7806
  108OSM    H1T11000   1.612   0.490   6.907  3.5801  1.4706  2.7427
  108OSM     NF11001   1.447   0.541   6.680 -0.0336  0.1755  0.0570
  108OSM    HNF11002   1.482   0.457   6.640  1.6541  0.3933  0.9804
  108OSM    C2S11003   1.555   0.623   6.740 -0.0775 -0.3400  0.8929
  108OSM    H2S11004   1.523   0.729   6.727 -3.2303 -1.2590  0.2795
  108OSM    C3S11005   1.694   0.609   6.668 -0.7781  0.7048  0.2318
  108OSM    H3S11006   1.727   0.503   6.669 -1.4380  0.5025  0.6403
  108OSM     O311007   1.809   0.661   6.738  0.4296  0.5072 -0.4645
  108OSM    HO311008   1.765   0.704   6.812 -1.7486 -0.0135 -1.3746
  108OSM    C4S11009   1.681   0.667   6.529 -0.8152 -1.3217  0.4549
  108OSM    H4S11010   1.678   0.590   6.450  1.5017 -0.5299 -0.4728
  108OSM    C5S11011   1.678   0.796   6.495  0.5459  0.2148 -0.0502
  108OSM    H5S11012   1.663   0.867   6.578 -1.8603 -0.2890  0.0308
  108OSM    C6S11013   1.664   0.845   6.348 -0.3001  0.0517  0.5641
  108OSM    H6S11014   1.757   0.905   6.335  1.2820 -1.7857  2.6807
  108OSM    H6T11015   1.590   0.927   6.339  0.5512  0.7247 -0.5552
  108OSM    C7S11016   1.641   0.750   6.235 -0.5550 -0.4048  0.7132
  108OSM    H7S11017   1.543   0.702   6.256 -1.9027  3.2492  3.9026
  108OSM    H7T11018   1.722   0.674   6.235 -0.4993 -0.3576 -0.4095
  108OSM    C8S11019   1.626   0.806   6.088 -0.4228  0.3085  0.0321
  108OSM    H8S11020   1.714   0.863   6.051 -1.2422 -0.0384 -2.6970
  108OSM    H8T11021   1.548   0.884   6.099 -0.6326 -0.0467  1.1690
  108OSM    C9S11022   1.590   0.700   5.983  0.0580  0.2527  0.5724
  108OSM    H9S11023   1.501   0.644   6.018 -1.6109  2.7151  0.5747
  108OSM    H9T11024   1.664   0.617   5.977 -2.5719 -2.3133  1.4461
  108OSM   C10S11025   1.551   0.776   5.852 -0.1603 -0.3804  0.0320
  108OSM   H10S11026   1.621   0.861   5.840  0.3692 -0.7373  0.5474
  108OSM   H10T11027   1.450   0.818   5.871  0.2518 -0.0419  1.6392
  108OSM   C11S11028   1.565   0.688   5.737  0.0084  0.9924  0.3171
  108OSM   H11S11029   1.506   0.597   5.760  1.9367 -0.2057  0.7684
  108OSM   H11T11030   1.671   0.654   5.733 -0.6423 -1.3059  1.3728
  108OSM   C12S11031   1.527   0.736   5.594 -0.4016  1.6568 -1.4733
  108OSM   H12S11032   1.420   0.764   5.585 -1.4874 -1.3555  0.6967
  108OSM   H12T11033   1.529   0.642   5.535  0.4122 -2.0626  3.7668
  108OSM   C13S11034   1.609   0.855   5.550 -0.6131 -1.0159  0.0512
  108OSM   H13S11035   1.716   0.829   5.566 -0.3148  0.9212  1.5964
  108OSM   H13T11036   1.586   0.944   5.612 -0.6048  0.5198 -2.0251
  108OSM   C14S11037   1.595   0.885   5.403  0.0123 -0.3285 -0.1021
  108OSM   H14S11038   1.657   0.975   5.384 -2.0867  1.2400 -0.0091
  108OSM   H14T11039   1.488   0.904   5.379 -0.6805 -3.0069  0.5691
  108OSM   C15S11040   1.642   0.771   5.317  0.1079 -0.1957  0.1477
  108OSM   H15S11041   1.572   0.686   5.331 -0.7162  0.5736  0.9065
  108OSM   H15T11042   1.742   0.743   5.357  0.2872 -2.0255 -1.4866
  108OSM   C16S11043   1.646   0.818   5.165 -0.5602  0.2974 -0.1459
  108OSM   H16S11044   1.694   0.917   5.158  0.3741 -0.2621 -3.5275
  108OSM   H16T11045   1.542   0.826   5.126  0.1554 -1.8317 -2.8429
  108OSM   C17S11046   1.719   0.730   5.061 -0.4134 -0.0140 -0.1874
  108OSM   H17S11047   1.823   0.708   5.096 -0.9592 -1.2195  0.7495
  108OSM   H17T11048   1.725   0.777   4.960 -1.7362  0.7495  0.0719
  108OSM   C18S11049   1.631   0.605   5.044  1.0582  0.2184  0.0421
  108OSM   H18S11050   1.589   0.570   5.141  0.7343 -3.2472 -1.1908
  108OSM   H18T11051   1.672   0.514   4.994 -0.9272 -1.8882  1.9902
  108OSM   H18U11052   1.543   0.646   4.990  0.1312 -2.4119 -0.6380
  108OSM    C1F11053   1.324   0.558   6.702  0.4985 -0.1127  0.1175
  108OSM     OF11054   1.288   0.638   6.783  0.2533 -0.4925 -0.2361
  108OSM    C2F11055   1.228   0.458   6.636  0.4382 -0.2111 -0.0099
  108OSM    H2F11056   1.201   0.389   6.718 -0.2566 -0.4727 -0.4510
  108OSM    H2G11057   1.280   0.407   6.552 -0.6606  1.2837 -1.6903
  108OSM    C3F11058   1.103   0.526   6.580 -0.1585  0.7430  0.2023
  108OSM    H3F11059   1.066   0.610   6.643  1.2570  2.2658 -0.8962
  108OSM    H3G11060   1.025   0.448   6.590  0.4989  0.0708  0.1816
  108OSM    C4F11061   1.113   0.583   6.431  0.1158  0.6681 -0.6070
  108OSM    H4F11062   1.011   0.613   6.398 -0.3781 -0.6284 -0.3266
  108OSM    H4G11063   1.154   0.502   6.366 -1.8055 -0.5455 -0.3995
  108OSM    C5F11064   1.211   0.699   6.411 -0.0996  0.5643  0.4870
  108OSM    H5F11065   1.311   0.651   6.415 -0.1052  0.6035  3.8911
  108OSM    H5G11066   1.208   0.775   6.492  2.9374  0.1982  1.0547
  108OSM    C6F11067   1.190   0.772   6.272 -0.0315 -0.2416  0.8533
  108OSM    H6F11068   1.250   0.865   6.277  0.7782 -0.6714 -0.4711
  108OSM    H6G11069   1.084   0.798   6.251 -0.4629 -0.8834  2.1294
  108OSM    C7F11070   1.250   0.682   6.151  0.1021  0.5482 -0.5944
  108OSM    H7F11071   1.331   0.618   6.193  0.1113  0.1887 -1.1450
  108OSM    H7G11072   1.305   0.744   6.077 -2.0563  1.2796 -1.6443
  108OSM    C8F11073   1.153   0.585   6.094  0.2527  0.8822  0.3454
  108OSM    H8F11074   1.071   0.641   6.045  0.6358 -0.8783 -2.5145
  108OSM    H8G11075   1.114   0.531   6.183  0.5706 -0.6138 -0.3923
  108OSM    C9F11076   1.206   0.487   5.999 -0.3897 -0.5873  0.2210
  108OSM    H9F11077   1.199   0.513   5.892  0.3216 -0.3374  0.2322
  108OSM   C10F11078   1.279   0.381   6.032  0.2250  0.0664  0.3029
  108OSM   H10F11079   1.301   0.314   5.948  1.4200  2.5398 -1.5198
  108OSM   C11F11080   1.321   0.332   6.166 -0.0706  0.0535 -0.2702
  108OSM   H11F11081   1.274   0.233   6.183  1.0288 -0.6378 -1.1206
  108OSM   H11G11082   1.286   0.398   6.248  1.3929 -1.7964  1.9931
  108OSM   C12F11083   1.477   0.320   6.183  0.2134 -0.0166  0.0597
  108OSM   H12F11084   1.494   0.306   6.292  0.2204  0.4587  0.1227
  108OSM   H12G11085   1.513   0.422   6.158 -3.6804  1.3722 -0.5287
  108OSM   C13F11086   1.534   0.218   6.085 -0.7192  1.0400  0.5565
  108OSM   H13F11087   1.506   0.237   5.979 -1.2216  0.5187  0.5947
  108OSM   H13G11088   1.488   0.121   6.114  2.6241 -0.9964 -0.3913
  108OSM   C14F11089   1.691   0.200   6.099 -0.2410 -0.1509 -0.0296
  108OSM   H14F11090   1.723   0.212   6.204  0.2621 -1.6548  0.0040
  108OSM   H14G11091   1.744   0.273   6.034 -2.4727  0.0204 -1.7962
  108OSM   C15F11092   1.735   0.056   6.050  0.3284 -0.3913  0.5111
  108OSM   H15F11093   1.721   0.050   5.940 -0.6390  0.0147  0.6013
  108OSM   H15G11094   1.668  -0.020   6.097 -0.6055  0.1110  0.0133
  108OSM   C16F11095   1.884   0.014   6.070  0.3702  0.2248  0.0345
  108OSM   H16F11096   1.909  -0.080   6.017  2.5295 -0.1218  1.5400
  108OSM   H16G11097   1.902  -0.006   6.178 -1.1398  1.2577  0.5084
  108OSM   C17F11098   1.990   0.119   6.032 -0.1441  0.2432 -0.2947
  108OSM   H17F11099   2.094   0.093   6.060 -0.1459  1.1124  0.5540
  108OSM   H17G11100   1.973   0.211   6.091  0.9870 -0.7142  1.5890
  108OSM   C18F11101   1.992   0.140   5.875  0.4851 -0.1633  0.2381
  108OSM   H18F11102   1.899   0.189   5.837  0.0666 -1.3763 -0.3653
  108OSM   H18G11103   1.999   0.048   5.814 -1.1283 -1.5299  2.0013
  108OSM   H18H11104   2.071   0.217   5.856  1.7364 -1.5245 -0.2695
  109OSM      N11105   5.362   2.432   6.982  0.1459  0.6992 -0.4048
  109OSM    C1511106   5.301   2.337   6.884  0.4828  0.9713 -0.9711
  109OSM   H15A11107   5.283   2.384   6.788 -0.2311  0.7129 -0.9657
  109OSM   H15B11108   5.205   2.301   6.918  1.4516 -0.7937  0.0522
  109OSM   H15C11109   5.369   2.254   6.871  1.6255  1.2044  2.5180
  109OSM    C1411110   5.256   2.537   7.009 -0.1695  0.1190 -0.9346
  109OSM   H14A11111   5.165   2.494   7.048  0.0548  0.1775 -0.3322
  109OSM   H14B11112   5.222   2.588   6.920  0.3533 -0.7822 -1.6644
  109OSM   H14C11113   5.284   2.612   7.081 -0.9675 -1.0509  0.6633
  109OSM    C1311114   5.370   2.358   7.113 -0.9523 -0.5193  1.1001
  109OSM   H13A11115   5.440   2.278   7.099 -1.5292 -0.8438 -0.0879
  109OSM   H13B11116   5.274   2.317   7.142 -1.7662  0.2192 -0.4331
  109OSM   H13C11117   5.399   2.425   7.193  1.5345  0.9201 -0.8824
  109OSM    C1211118   5.493   2.497   6.933  0.6105  0.0572 -0.2477
  109OSM   H12A11119   5.484   2.521   6.828  2.6960 -0.5249 -0.5999
  109OSM   H12B11120   5.562   2.415   6.921 -2.5029 -2.9614  0.5899
  109OSM    C1111121   5.555   2.607   7.026  0.0969 -0.1438  0.0076
  109OSM   H11A11122   5.665   2.600   7.012  0.1082  0.8411 -0.4959
  109OSM   H11B11123   5.544   2.572   7.131 -0.5754 -0.2376 -0.0846
  109OSM      P11124   5.538   2.819   6.888 -0.2286 -0.2841  0.5537
  109OSM    O1311125   5.486   2.958   6.901  0.0097  0.0252 -0.4967
  109OSM    O1411126   5.685   2.806   6.864 -0.1187  0.3825  0.8135
  109OSM    O1111127   5.447   2.741   6.775 -0.2025  0.0878  0.4533
  109OSM    O1211128   5.498   2.739   7.016 -0.2218  0.3529 -0.0349
  109OSM    C1S11129   5.475   2.787   6.639  0.1784 -0.4381  0.5786
  109OSM    H1S11130   5.578   2.825   6.628 -0.3873  0.7279 -1.1786
  109OSM    H1T11131   5.404   2.867   6.607 -0.5742 -1.1416  0.4351
  109OSM     NF11132   5.493   2.722   6.399 -0.3724 -0.1696 -0.4827
  109OSM    HNF11133   5.416   2.757   6.347 -0.8758 -1.1846 -0.4452
  109OSM    C2S11134   5.464   2.675   6.532  0.2097  0.5158  1.0587
  109OSM    H2S11135   5.551   2.608   6.546 -0.1452 -0.3684 -0.7626
  109OSM    C3S11136   5.338   2.584   6.544 -0.2269  0.0905 -0.1289
  109OSM    H3S11137   5.253   2.648   6.513  0.1749  0.1856 -1.0542
  109OSM     O311138   5.304   2.547   6.676 -0.5014 -0.3739 -0.2260
  109OSM    HO311139   5.358   2.607   6.728  2.8327 -2.7776 -0.5923
  109OSM    C4S11140   5.327   2.475   6.445 -0.1105  1.2132  0.3462
  109OSM    H4S11141   5.248   2.503   6.375  0.9927  2.8258 -0.3257
  109OSM    C5S11142   5.380   2.353   6.446 -0.0429 -0.6897  0.0308
  109OSM    H5S11143   5.441   2.322   6.533  0.5488  0.5823  0.0899
  109OSM    C6S11144   5.354   2.256   6.336 -0.3790  0.1634 -1.0514
  109OSM    H6S11145   5.301   2.167   6.377 -2.2820  1.2026 -1.1514
  109OSM    H6T11146   5.454   2.225   6.300  0.3501 -0.0738  1.0885
  109OSM    C7S11147   5.259   2.298   6.216 -0.1525  0.0874 -0.3949
  109OSM    H7S11148   5.313   2.382   6.166  2.9597 -1.6238 -0.1728
  109OSM    H7T11149   5.157   2.323   6.252 -0.3409  1.9676 -2.0545
  109OSM    C8S11150   5.234   2.193   6.103 -0.3115 -0.5771 -0.6892
  109OSM    H8S11151   5.179   2.109   6.148 -1.3509  1.5559  2.3896
  109OSM    H8T11152   5.335   2.158   6.072  0.2272 -0.1144  0.4835
  109OSM    C9S11153   5.157   2.248   5.984 -0.1576  0.6429 -0.6000
  109OSM    H9S11154   5.198   2.344   5.945  2.9571 -0.9983 -1.7308
  109OSM    H9T11155   5.051   2.266   6.013 -0.2971 -1.0817  0.0786
  109OSM   C10S11156   5.145   2.160   5.866  0.2639  0.2544 -0.1282
  109OSM   H10S11157   5.081   2.219   5.797  0.8907  1.7766  0.5509
  109OSM   H10T11158   5.092   2.065   5.889  0.3035  0.2615 -0.0080
  109OSM   C11S11159   5.280   2.125   5.797  0.3677 -0.0762 -0.0884
  109OSM   H11S11160   5.339   2.067   5.872  1.2135  1.4269  0.4687
  109OSM   H11T11161   5.344   2.215   5.782  0.9516 -0.5917 -0.7615
  109OSM   C12S11162   5.266   2.049   5.666  0.8447 -0.1379  0.3647
  109OSM   H12S11163   5.190   2.102   5.604  0.2286  1.3608  2.3219
  109OSM   H12T11164   5.217   1.949   5.671 -0.0354  0.2736  0.2251
  109OSM   C13S11165   5.408   2.034   5.599 -0.0954 -0.6345  0.3430
  109OSM   H13S11166   5.470   1.966   5.661 -0.2048 -0.8545  0.2098
  109OSM   H13T11167   5.456   2.135   5.598  0.4388 -0.8561 -1.8866
  109OSM   C14S11168   5.413   1.997   5.447  0.0531 -0.1904 -0.6275
  109OSM   H14S11169   5.361   2.074   5.386 -1.3479 -0.7254 -0.1595
  109OSM   H14T11170   5.364   1.900   5.424  1.7028 -1.0296 -0.7557
  109OSM   C15S11171   5.558   1.992   5.398  0.3428  0.2231 -1.0407
  109OSM   H15S11172   5.598   1.889   5.400  2.1345  0.8999  0.5266
  109OSM   H15T11173   5.618   2.048   5.472 -0.9048  1.4661 -0.9160
  109OSM   C16S11174   5.574   2.046   5.252 -0.7783 -0.3829  0.6071
  109OSM   H16S11175   5.680   2.040   5.220 -1.4352 -0.3980 -1.6893
  109OSM   H16T11176   5.553   2.155   5.258  1.0686  0.0686 -0.3141
  109OSM   C17S11177   5.478   1.989   5.151 -0.0203 -0.6273  0.9706
  109OSM   H17S11178   5.378   2.019   5.189 -0.0001  0.4339  0.2468
  109OSM   H17T11179   5.489   1.878   5.149 -2.1271 -0.9972  3.7784
  109OSM   C18S11180   5.491   2.052   5.007 -0.2874  0.1312  0.3599
  109OSM   H18S11181   5.405   2.024   4.942  1.4976  1.9222 -3.0726
  109OSM   H18T11182   5.589   2.021   4.965 -0.6342 -0.0734 -0.3223
  109OSM   H18U11183   5.484   2.159   5.034 -0.6779 -0.1766  1.5365
  109OSM    C1F11184   5.624   2.759   6.370  0.5214  0.5327  0.1552
  109OSM     OF11185   5.719   2.730   6.446  0.1801  0.4327 -0.2184
  109OSM    C2F11186   5.630   2.830   6.244  0.5124 -0.1409  0.8071
  109OSM    H2F11187   5.643   2.940   6.252  0.4370  0.4705 -4.3196
  109OSM    H2G11188   5.538   2.816   6.183  1.0551 -0.7810  0.1186
  109OSM    C3F11189   5.756   2.772   6.174 -0.8871 -0.1932  0.6447
  109OSM    H3F11190   5.758   2.662   6.163  1.0577 -0.2029  0.7036
  109OSM    H3G11191   5.842   2.802   6.238 -0.8588 -0.3238  0.6674
  109OSM    C4F11192   5.769   2.839   6.034 -0.3130 -0.2367  0.0966
  109OSM    H4F11193   5.780   2.949   6.048  0.6239 -0.0426 -1.8363
  109OSM    H4G11194   5.678   2.824   5.972 -0.4720 -1.2850  0.5745
  109OSM    C5F11195   5.887   2.794   5.953  0.3713  0.1957  0.0200
  109OSM    H5F11196   5.869   2.701   5.894  1.1731  0.2486 -0.3269
  109OSM    H5G11197   5.975   2.783   6.021  1.3442 -2.2009 -1.4875
  109OSM    C6F11198   5.931   2.901   5.852  0.0701  0.3621  1.0459
  109OSM    H6F11199   6.018   2.857   5.799  1.0999 -0.1081  3.0427
  109OSM    H6G11200   5.964   2.990   5.909 -2.4534  1.1594  1.3787
  109OSM    C7F11201   5.809   2.932   5.761  0.0442 -0.3547  0.4550
  109OSM    H7F11202   5.730   2.981   5.821  1.7498  0.1471  2.4188
  109OSM    H7G11203   5.771   2.840   5.711 -1.0324  0.5614 -0.4786
  109OSM    C8F11204   5.833   3.032   5.646  0.2686  0.8566 -0.3088
  109OSM    H8F11205   5.845   3.132   5.693 -0.4816  2.4556 -3.2616
  109OSM    H8G11206   5.743   3.046   5.583  1.5124  2.0934 -1.9054
  109OSM    C9F11207   5.951   2.996   5.562 -0.6229  1.1903 -0.6914
  109OSM    H9F11208   6.046   3.041   5.595 -1.5265  2.3893  0.4062
  109OSM   C10F11209   5.949   2.948   5.440 -0.4777  0.2970  0.1043
  109OSM   H10F11210   6.044   2.950   5.384 -0.1830 -0.2300  0.5662
  109OSM   C11F11211   5.840   2.894   5.356  0.4147  0.4590  0.3606
  109OSM   H11F11212   5.753   2.855   5.414  2.0953 -2.3556  1.1720
  109OSM   H11G11213   5.873   2.813   5.287 -0.9826 -1.3124  1.6549
  109OSM   C12F11214   5.793   3.014   5.276 -0.5631  0.3588  0.3221
  109OSM   H12F11215   5.876   3.070   5.228 -1.4414  0.2291 -1.4420
  109OSM   H12G11216   5.721   3.081   5.328 -0.5596 -0.1457  0.9857
  109OSM   C13F11217   5.698   2.968   5.159 -0.3100  0.8659  1.4322
  109OSM   H13F11218   5.608   2.923   5.206 -0.5349  0.2721  0.4657
  109OSM   H13G11219   5.758   2.891   5.106  0.6743  3.0360 -0.8074
  109OSM   C14F11220   5.686   3.082   5.054  0.0000 -0.4766 -0.6996
  109OSM   H14F11221   5.769   3.097   4.982 -0.0032  2.7887 -0.1601
  109OSM   H14G11222   5.691   3.167   5.126 -3.4168 -1.4790  0.9649
  109OSM   C15F11223   5.561   3.077   4.967 -0.4377  0.3749 -1.2438
  109OSM   H15F11224   5.471   3.079   5.033  0.5516 -1.4523  0.2496
  109OSM   H15G11225   5.558   2.988   4.900  1.8175 -0.5561 -0.1890
  109OSM   C16F11226   5.557   3.208   4.891 -0.3534 -0.2873  0.1157
  109OSM   H16F11227   5.618   3.205   4.798  2.4948  3.1949  1.6451
  109OSM   H16G11228   5.611   3.289   4.944 -1.6534  0.4270  0.4070
  109OSM   C17F11229   5.424   3.276   4.880  0.4605 -0.4613  1.1917
  109OSM   H17F11230   5.343   3.252   4.952 -1.1607 -1.9570 -0.9866
  109OSM   H17G11231   5.387   3.231   4.785  0.2888  1.6148  0.2036
  109OSM   C18F11232   5.427   3.427   4.849 -0.4242  0.7525 -0.0393
  109OSM   H18F11233   5.326   3.458   4.814 -0.1231  0.9247 -0.7782
  109OSM   H18G11234   5.489   3.458   4.762 -0.2143 -0.5957 -0.3895
  109OSM   H18H11235   5.448   3.485   4.942 -0.5718 -0.2112  0.6035
  110OSM      N11236   1.491   6.507   7.221  0.3966 -0.3464 -0.0348
  110OSM    C1511237   1.637   6.496   7.255 -0.4526  0.5917  0.6694
  110OSM   H15A11238   1.651   6.494   7.362 -2.1518 -2.4431  0.9608
  110OSM   H15B11239   1.691   6.582   7.217  0.2825 -0.8288 -1.7126
  110OSM   H15C11240   1.680   6.407   7.213  1.9127  2.4635 -1.1574
  110OSM    C1411241   1.421   6.385   7.258  0.9747 -0.1275 -0.0681
  110OSM   H14A11242   1.407   6.393   7.364  2.4553 -0.3694  0.1555
  110OSM   H14B11243   1.471   6.293   7.233 -0.6609 -1.4866  1.4663
  110OSM   H14C11244   1.321   6.379   7.218  0.8672 -0.0002  0.1799
  110OSM    C1311245   1.435   6.616   7.307 -0.2644  0.3312 -0.6228
  110OSM   H13A11246   1.413   6.592   7.410  1.3686  0.9825 -0.0857
  110OSM   H13B11247   1.348   6.649   7.253 -0.5702  0.1259 -0.2577
  110OSM   H13C11248   1.504   6.698   7.313  2.9228 -2.0149 -1.9259
  110OSM    C1211249   1.468   6.538   7.076  0.4385  1.1104 -1.1048
  110OSM   H12A11250   1.363   6.542   7.050 -0.2030 -0.2181  1.0643
  110OSM   H12B11251   1.511   6.453   7.026  0.5255 -1.8133  3.3800
  110OSM    C1111252   1.535   6.662   7.013  0.1852  0.0661  0.4037
  110OSM   H11A11253   1.530   6.649   6.902  1.1297 -0.9965  0.4678
  110OSM   H11B11254   1.642   6.646   7.040  0.7614  0.2571 -1.5829
  110OSM      P11255   1.342   6.833   7.020 -0.0055 -1.2252 -0.3229
  110OSM    O1311256   1.263   6.822   7.144 -0.4310 -0.3564  0.5353
  110OSM    O1411257   1.334   6.973   6.963 -0.5159  0.1224  0.1096
  110OSM    O1111258   1.287   6.729   6.911 -0.3953 -0.3492 -0.3224
  110OSM    O1211259   1.484   6.788   7.054 -0.8311 -0.0314 -0.1170
  110OSM    C1S11260   1.149   6.742   6.864 -0.5648 -0.6401  0.0910
  110OSM    H1S11261   1.101   6.840   6.887 -0.2279 -0.5698  0.5026
  110OSM    H1T11262   1.084   6.677   6.927  1.3655 -1.7435  1.0145
  110OSM     NF11263   1.014   6.754   6.657  0.5169  0.3703 -0.1640
  110OSM    HNF11264   0.944   6.685   6.639  2.7390 -2.2062  0.2677
  110OSM    C2S11265   1.142   6.709   6.709 -0.1296 -0.7265  0.0943
  110OSM    H2S11266   1.213   6.776   6.656 -0.4201  2.5475  3.4343
  110OSM    C3S11267   1.187   6.562   6.681  0.1702 -0.0482 -0.0908
  110OSM    H3S11268   1.127   6.491   6.743  0.8974  1.6398  2.7517
  110OSM     O311269   1.314   6.543   6.740 -0.9630 -0.2681 -0.5207
  110OSM    HO311270   1.322   6.628   6.784 -0.5608 -0.8424  0.5332
  110OSM    C4S11271   1.196   6.526   6.537  0.4840  0.3429 -0.0084
  110OSM    H4S11272   1.272   6.585   6.483  0.4375  0.3826 -0.0303
  110OSM    C5S11273   1.120   6.434   6.468  0.2102  0.5692 -0.1324
  110OSM    H5S11274   1.040   6.390   6.529  1.8901  1.2429  2.7422
  110OSM    C6S11275   1.131   6.400   6.319  0.0866  0.6357  0.0885
  110OSM    H6S11276   1.093   6.296   6.315 -2.2638  1.3935  1.0010
  110OSM    H6T11277   1.240   6.393   6.300 -0.1043 -0.6268 -0.6478
  110OSM    C7S11278   1.065   6.496   6.219 -0.8038 -0.1925  0.0079
  110OSM    H7S11279   1.097   6.601   6.239 -1.5580 -0.0988  0.7936
  110OSM    H7T11280   0.957   6.504   6.243 -0.6883 -0.7702  0.7508
  110OSM    C8S11281   1.087   6.446   6.079 -0.0535  0.4094 -0.1669
  110OSM    H8S11282   1.044   6.344   6.071 -2.8423  1.4170  0.6960
  110OSM    H8T11283   1.193   6.423   6.057 -0.5742 -2.0953 -0.3957
  110OSM    C9S11284   1.029   6.531   5.961  0.5114  0.5297  0.1747
  110OSM    H9S11285   1.049   6.638   5.982  0.4449  0.8889 -1.4699
  110OSM    H9T11286   0.920   6.522   5.978  0.6086  0.9214  1.0626
  110OSM   C10S11287   1.076   6.487   5.821 -0.3888 -0.4546 -0.2335
  110OSM   H10S11288   1.073   6.376   5.815 -0.1806 -0.4936  0.3183
  110OSM   H10T11289   1.177   6.522   5.791  0.0927  1.2504  3.0112
  110OSM   C11S11290   0.980   6.552   5.723  0.1782 -0.3910 -0.8704
  110OSM   H11S11291   1.027   6.651   5.709  0.9227 -0.6692 -0.4205
  110OSM   H11T11292   0.876   6.566   5.759  0.8246  0.3875  0.7700
  110OSM   C12S11293   0.970   6.475   5.591  0.2817  0.1705 -0.3739
  110OSM   H12S11294   0.912   6.380   5.605 -0.0189  0.4400  0.2561
  110OSM   H12T11295   1.072   6.454   5.552  1.1351  3.6714 -0.3672
  110OSM   C13S11296   0.909   6.552   5.474  0.0477  0.2500  0.6409
  110OSM   H13S11297   0.952   6.651   5.447  0.2691 -0.4171 -1.6639
  110OSM   H13T11298   0.804   6.580   5.498 -0.1207 -1.1258  1.6452
  110OSM   C14S11299   0.903   6.476   5.344 -0.6868 -1.0228  0.6644
  110OSM   H14S11300   0.998   6.422   5.327 -0.1276 -0.6839  2.4590
  110OSM   H14T11301   0.885   6.547   5.261 -1.4551 -0.6263  1.1583
  110OSM   C15S11302   0.790   6.366   5.347 -0.1230 -0.9624 -0.6446
  110OSM   H15S11303   0.715   6.414   5.412  1.5891  0.6104  0.2791
  110OSM   H15T11304   0.819   6.269   5.393  1.5225 -0.3803 -0.3893
  110OSM   C16S11305   0.726   6.343   5.209 -0.0600 -0.0260 -0.5390
  110OSM   H16S11306   0.808   6.317   5.138 -0.4642  1.6791 -1.6847
  110OSM   H16T11307   0.684   6.439   5.172 -0.8322 -0.6475 -1.3275
  110OSM   C17S11308   0.612   6.242   5.211 -0.5003 -0.5077 -0.0693
  110OSM   H17S11309   0.521   6.296   5.243 -0.0891  0.7377 -0.9160
  110OSM   H17T11310   0.627   6.169   5.294 -3.2281  0.4282  1.3902
  110OSM   C18S11311   0.605   6.184   5.073  0.2161  0.6545  0.3082
  110OSM   H18S11312   0.582   6.255   4.990 -0.2696  0.9371  0.6786
  110OSM   H18T11313   0.528   6.105   5.061  1.2372 -0.7043  2.2760
  110OSM   H18U11314   0.700   6.135   5.043  1.1472  1.1988  2.1983
  110OSM    C1F11315   0.977   6.883   6.645  0.0554  0.6020 -0.6371
  110OSM     OF11316   1.053   6.970   6.674 -0.4838 -0.3758  0.9833
  110OSM    C2F11317   0.837   6.920   6.609  0.3181  0.2621 -0.5175
  110OSM    H2F11318   0.813   6.996   6.686  2.7182 -0.6624  1.2564
  110OSM    H2G11319   0.764   6.835   6.607  0.4456  0.1565 -1.1906
  110OSM    C3F11320   0.841   7.003   6.480  0.2330 -0.2070  0.6405
  110OSM    H3F11321   0.900   7.097   6.491 -0.5524  0.5047 -0.9540
  110OSM    H3G11322   0.743   7.044   6.448  1.1136  2.2549  0.8748
  110OSM    C4F11323   0.909   6.930   6.363  0.1654  0.8702 -0.4170
  110OSM    H4F11324   0.890   6.821   6.359 -0.1024  0.9324 -0.8571
  110OSM    H4G11325   1.018   6.941   6.378  0.4254  0.0661 -1.6445
  110OSM    C5F11326   0.883   6.998   6.228 -0.5495  0.2138  0.0620
  110OSM    H5F11327   0.916   7.103   6.214  1.5318 -0.2085  1.2866
  110OSM    H5G11328   0.772   6.994   6.230 -0.7031  2.1976 -1.4046
  110OSM    C6F11329   0.934   6.925   6.107  0.3624 -0.1950  0.2015
  110OSM    H6F11330   0.882   6.827   6.105 -1.1870  0.6041 -0.4911
  110OSM    H6G11331   1.041   6.896   6.112  0.3532 -0.8252 -2.0505
  110OSM    C7F11332   0.901   7.003   5.974 -0.2734 -0.5643 -0.4871
  110OSM    H7F11333   0.939   7.106   5.991 -1.3815 -0.4105  1.2949
  110OSM    H7G11334   0.792   7.015   5.957 -0.2566 -2.1862 -2.1496
  110OSM    C8F11335   0.965   6.952   5.840  0.6031  0.3218 -0.6914
  110OSM    H8F11336   0.948   6.843   5.832  2.0359 -0.3042  2.7996
  110OSM    H8G11337   1.075   6.947   5.860  0.6470 -2.6815 -1.3004
  110OSM    C9F11338   0.942   7.026   5.705  0.3170  0.5507  0.5943
  110OSM    H9F11339   0.855   6.996   5.645  0.2931  2.3622 -0.3330
  110OSM   C10F11340   1.018   7.127   5.658 -0.8888 -0.0800 -0.5961
  110OSM   H10F11341   0.992   7.174   5.562  1.0151 -1.6501 -1.9816
  110OSM   C11F11342   1.141   7.185   5.714 -0.6561  1.0650 -0.6428
  110OSM   H11F11343   1.164   7.140   5.813  1.4504  0.8747 -1.1789
  110OSM   H11G11344   1.127   7.295   5.718  0.1237  1.1908 -1.0836
  110OSM   C12F11345   1.269   7.162   5.623  0.5844 -0.2130  0.0563
  110OSM   H12F11346   1.265   7.234   5.538  0.9095 -1.1038 -0.7310
  110OSM   H12G11347   1.255   7.061   5.580 -4.3127  0.5338 -0.6109
  110OSM   C13F11348   1.407   7.197   5.685  0.1592  0.1848  0.2155
  110OSM   H13F11349   1.440   7.113   5.750  1.2989 -0.4564 -1.1294
  110OSM   H13G11350   1.381   7.294   5.733 -2.2486  0.3603 -1.2848
  110OSM   C14F11351   1.529   7.219   5.591  0.3254  0.4316 -0.3132
  110OSM   H14F11352   1.604   7.271   5.655  1.2845  0.2457 -1.2627
  110OSM   H14G11353   1.505   7.292   5.511  1.1475  0.7541 -0.2801
  110OSM   C15F11354   1.587   7.088   5.534  0.7845 -0.2515  0.1292
  110OSM   H15F11355   1.509   7.036   5.473  0.2543 -0.8813  1.3185
  110OSM   H15G11356   1.617   7.020   5.617 -0.8195 -1.0948  0.0601
  110OSM   C16F11357   1.711   7.106   5.456 -0.4129 -0.6448 -0.8492
  110OSM   H16F11358   1.776   7.178   5.510 -1.6296 -0.9145  1.0933
  110OSM   H16G11359   1.687   7.154   5.359  2.7345  2.8397 -0.1302
  110OSM   C17F11360   1.806   6.995   5.432 -0.9366 -0.2119  0.0071
  110OSM   H17F11361   1.762   6.913   5.371 -0.7771 -1.1916  1.1690
  110OSM   H17G11362   1.839   6.949   5.528  2.0040  0.2384 -0.7083
  110OSM   C18F11363   1.927   7.050   5.350 -0.3017 -0.0204 -0.6980
  110OSM   H18F11364   1.971   6.966   5.292 -2.9726 -2.3474  0.4025
  110OSM   H18G11365   2.002   7.098   5.416 -0.4329 -0.7294 -0.0200
  110OSM   H18H11366   1.893   7.126   5.277 -1.5127 -0.6905 -0.8576
  111OSM      N11367   4.433   5.490   7.084  0.0648  0.4551  0.0878
  111OSM    C1511368   4.548   5.404   7.058  0.1971 -0.3055 -0.2102
  111OSM   H15A11369   4.520   5.350   6.969 -0.6241 -1.7510  0.8726
  111OSM   H15B11370   4.552   5.331   7.138 -0.9486 -0.1373  0.0154
  111OSM   H15C11371   4.640   5.460   7.050  1.0694 -1.6297  0.1008
  111OSM    C1411372   4.482   5.596   7.184 -0.1679  0.1702 -0.3397
  111OSM   H14A11373   4.410   5.675   7.203  0.2118  0.5903 -0.6463
  111OSM   H14B11374   4.573   5.638   7.144  0.2244 -2.0561 -1.9721
  111OSM   H14C11375   4.507   5.546   7.276  0.5511 -3.7353 -2.4425
  111OSM    C1311376   4.386   5.568   6.956  0.1021  0.3288 -0.0808
  111OSM   H13A11377   4.472   5.616   6.912 -0.7040  0.1718 -1.8946
  111OSM   H13B11378   4.316   5.645   6.981 -2.1238 -1.9544  1.2291
  111OSM   H13C11379   4.333   5.506   6.885  1.0088 -1.4800  0.7333
  111OSM    C1211380   4.323   5.389   7.137 -0.1234  0.7201 -0.3288
  111OSM   H12A11381   4.293   5.334   7.049  0.4752  1.1036 -0.7785
  111OSM   H12B11382   4.246   5.453   7.176 -0.1258 -0.5069  1.8574
  111OSM    C1111383   4.367   5.287   7.243  0.6605  0.9632 -0.1349
  111OSM   H11A11384   4.272   5.250   7.287 -0.4116  0.6527 -2.5371
  111OSM   H11B11385   4.429   5.341   7.316  2.1146 -0.1874 -0.4773
  111OSM      P11386   4.419   5.034   7.201 -0.4123 -0.0209  0.0026
  111OSM    O1311387   4.548   4.981   7.158 -0.0127  0.1174 -0.1914
  111OSM    O1411388   4.392   5.012   7.342  0.5738  0.0068  0.2726
  111OSM    O1111389   4.305   4.977   7.116 -0.4156 -0.7169 -0.1203
  111OSM    O1211390   4.433   5.186   7.175 -0.5125 -0.4457 -0.4665
  111OSM    C1S11391   4.272   5.047   6.994 -0.3551 -0.0241 -0.1430
  111OSM    H1S11392   4.323   5.144   6.978  1.4409 -1.0520 -0.9578
  111OSM    H1T11393   4.164   5.072   7.000 -0.8424 -2.2320  1.5671
  111OSM     NF11394   4.229   5.017   6.756  0.0102  0.0156 -0.0447
  111OSM    HNF11395   4.146   4.972   6.725 -1.0745  0.6249  1.8090
  111OSM    C2S11396   4.290   4.950   6.870  0.0591  0.4402 -0.1260
  111OSM    H2S11397   4.396   4.952   6.839 -0.2709  0.7944 -1.2781
  111OSM    C3S11398   4.244   4.806   6.899 -0.4442  0.6314 -0.0928
  111OSM    H3S11399   4.136   4.819   6.924 -0.4847 -1.0899  0.7660
  111OSM     O311400   4.317   4.740   7.012  0.1684 -0.6865 -0.1627
  111OSM    HO311401   4.352   4.818   7.054 -0.9358  0.1816 -0.7911
  111OSM    C4S11402   4.247   4.717   6.776 -0.1051 -0.3706  0.6152
  111OSM    H4S11403   4.346   4.695   6.733  0.2997 -0.4928  1.5693
  111OSM    C5S11404   4.147   4.660   6.710 -0.8595 -0.6729 -0.7435
  111OSM    H5S11405   4.041   4.676   6.738 -0.5928 -1.2449  0.6736
  111OSM    C6S11406   4.165   4.574   6.584  0.0358 -0.4561 -0.7628
  111OSM    H6S11407   4.109   4.478   6.580 -0.6759 -0.0261 -1.7960
  111OSM    H6T11408   4.274   4.555   6.571  0.5885  1.9799 -0.1189
  111OSM    C7S11409   4.132   4.655   6.464  0.3375  0.0174 -0.9381
  111OSM    H7S11410   4.185   4.752   6.457 -1.7481  1.1542 -2.2400
  111OSM    H7T11411   4.026   4.688   6.469 -0.9087 -3.3569 -1.7936
  111OSM    C8S11412   4.147   4.571   6.338 -0.1509 -0.5672  0.7155
  111OSM    H8S11413   4.072   4.489   6.331  1.8466 -2.3435 -2.6978
  111OSM    H8T11414   4.240   4.512   6.328 -0.4741 -0.8311 -1.0946
  111OSM    C9S11415   4.144   4.659   6.208  0.0608  0.0229 -0.1889
  111OSM    H9S11416   4.209   4.745   6.235 -0.4664 -0.3805  2.5909
  111OSM    H9T11417   4.043   4.706   6.211 -0.0256 -0.1874  3.0707
  111OSM   C10S11418   4.177   4.588   6.082  0.5079 -0.1958  0.1503
  111OSM   H10S11419   4.092   4.516   6.078  1.8000 -1.8151  0.8712
  111OSM   H10T11420   4.273   4.533   6.093  2.4820  2.0023 -3.8409
  111OSM   C11S11421   4.170   4.679   5.955  0.0493  0.5950  0.3988
  111OSM   H11S11422   4.243   4.759   5.979 -0.0706 -0.2316  4.1184
  111OSM   H11T11423   4.071   4.728   5.947 -0.6317 -0.9552 -1.5198
  111OSM   C12S11424   4.194   4.601   5.826  0.0283  0.4608  0.8770
  111OSM   H12S11425   4.135   4.508   5.818  1.1807 -0.1751 -0.7167
  111OSM   H12T11426   4.301   4.572   5.823 -0.1392 -0.0839 -0.2388
  111OSM   C13S11427   4.173   4.675   5.694  0.4734  0.4159  0.4274
  111OSM   H13S11428   4.212   4.776   5.668  1.9773 -0.4472 -0.8756
  111OSM   H13T11429   4.062   4.678   5.688  0.2934 -0.6035  2.4673
  111OSM   C14S11430   4.219   4.589   5.575 -0.2702 -0.2166  0.3565
  111OSM   H14S11431   4.153   4.500   5.583 -0.6831 -0.2018 -2.0041
  111OSM   H14T11432   4.325   4.558   5.578  0.2317  1.2551 -0.7406
  111OSM   C15S11433   4.200   4.668   5.445  0.5168 -0.4536  0.4045
  111OSM   H15S11434   4.284   4.738   5.458  0.8472 -0.9091  0.7508
  111OSM   H15T11435   4.098   4.712   5.457  0.0298 -1.6066  0.6699
  111OSM   C16S11436   4.216   4.593   5.309 -0.6740  0.3533  0.6310
  111OSM   H16S11437   4.141   4.515   5.288  0.8502 -1.0739  0.2401
  111OSM   H16T11438   4.313   4.538   5.312 -0.7055  0.1762 -0.8211
  111OSM   C17S11439   4.216   4.704   5.200 -0.0257 -0.3323 -0.4571
  111OSM   H17S11440   4.284   4.787   5.228 -0.8566  0.5302 -0.9431
  111OSM   H17T11441   4.114   4.749   5.198 -1.3322 -3.0450 -0.4461
  111OSM   C18S11442   4.267   4.672   5.061  0.3930 -0.6289 -0.7627
  111OSM   H18S11443   4.189   4.606   5.017 -0.2225  0.6835 -1.6901
  111OSM   H18T11444   4.358   4.609   5.052  0.9535 -0.2383  1.5446
  111OSM   H18U11445   4.281   4.761   4.996  0.1612  1.4781  1.8607
  111OSM    C1F11446   4.258   5.139   6.706  0.3496  0.3421  0.2402
  111OSM     OF11447   4.352   5.208   6.749 -0.4068  0.4623 -0.5141
  111OSM    C2F11448   4.185   5.187   6.585  0.3006 -0.0654 -0.3085
  111OSM    H2F11449   4.091   5.240   6.614 -0.1685 -1.1378  0.1983
  111OSM    H2G11450   4.157   5.094   6.530 -1.7715  1.0387 -1.2403
  111OSM    C3F11451   4.275   5.278   6.489  0.2010  0.0649 -0.5130
  111OSM    H3F11452   4.379   5.240   6.481  0.2919 -0.7551  2.8084
  111OSM    H3G11453   4.279   5.380   6.533  2.4087 -0.1931  0.0021
  111OSM    C4F11454   4.211   5.296   6.348  0.7819 -0.8664 -0.4300
  111OSM    H4F11455   4.109   5.338   6.358  0.4895 -1.5830 -0.2992
  111OSM    H4G11456   4.192   5.193   6.309 -0.7094 -1.1001  0.8161
  111OSM    C5F11457   4.292   5.384   6.258  0.1740 -0.6042  0.3730
  111OSM    H5F11458   4.393   5.340   6.246  0.1476 -1.2244  2.1673
  111OSM    H5G11459   4.311   5.482   6.305 -0.0663 -0.4713  0.1984
  111OSM    C6F11460   4.228   5.406   6.125 -0.5984 -0.1776 -0.2182
  111OSM    H6F11461   4.126   5.446   6.143 -0.4870  0.5472 -1.1507
  111OSM    H6G11462   4.216   5.299   6.096  1.7436 -0.1938 -1.3783
  111OSM    C7F11463   4.315   5.481   6.024  0.4266  0.2091 -0.3470
  111OSM    H7F11464   4.418   5.441   6.014 -0.0612 -0.6048 -3.3645
  111OSM    H7G11465   4.318   5.587   6.058  1.3392 -0.1825  0.8225
  111OSM    C8F11466   4.249   5.469   5.878 -0.7560  0.0326 -0.2075
  111OSM    H8F11467   4.144   5.503   5.896 -0.5653  0.8877 -0.6322
  111OSM    H8G11468   4.251   5.371   5.826 -0.7658  1.8590 -3.9396
  111OSM    C9F11469   4.312   5.568   5.783  0.2495  0.4514  0.0025
  111OSM    H9F11470   4.359   5.656   5.827  0.1066 -0.5488  2.2743
  111OSM   C10F11471   4.329   5.546   5.650 -0.3767  0.3312 -0.3535
  111OSM   H10F11472   4.362   5.627   5.584 -2.2447 -1.0197 -3.1298
  111OSM   C11F11473   4.295   5.428   5.565 -0.0067  0.4487 -0.2359
  111OSM   H11F11474   4.203   5.441   5.504 -1.0179 -2.3283  0.5465
  111OSM   H11G11475   4.280   5.333   5.621 -1.5111 -0.0726 -1.4623
  111OSM   C12F11476   4.400   5.388   5.461 -0.2803 -0.1996  0.2116
  111OSM   H12F11477   4.497   5.411   5.511 -0.6714  0.7949  0.5348
  111OSM   H12G11478   4.393   5.457   5.375 -0.2466  0.4145  0.6952
  111OSM   C13F11479   4.392   5.251   5.400  0.4514 -0.4946  0.0621
  111OSM   H13F11480   4.382   5.179   5.484  0.9689  0.9400  1.4109
  111OSM   H13G11481   4.488   5.228   5.349 -0.6629 -0.1097 -2.3353
  111OSM   C14F11482   4.278   5.233   5.293  0.5739 -0.2335  1.0935
  111OSM   H14F11483   4.180   5.214   5.343  0.0067  0.6681  0.3683
  111OSM   H14G11484   4.294   5.140   5.235  0.7817 -0.5546  1.6536
  111OSM   C15F11485   4.268   5.346   5.193 -0.9623 -0.3114  0.0057
  111OSM   H15F11486   4.366   5.388   5.161 -1.0967  0.3215  0.3981
  111OSM   H15G11487   4.232   5.435   5.248  2.5350  1.0784  0.2674
  111OSM   C16F11488   4.189   5.309   5.065  0.0859  0.9294 -0.6875
  111OSM   H16F11489   4.086   5.287   5.101  0.2077  1.8704  0.2948
  111OSM   H16G11490   4.220   5.217   5.011 -0.5021 -1.0351  2.0509
  111OSM   C17F11491   4.168   5.413   4.958 -0.5356 -0.2840 -0.0271
  111OSM   H17F11492   4.150   5.366   4.859 -2.2375  2.4770 -1.1275
  111OSM   H17G11493   4.261   5.473   4.953  0.4263 -1.8195 -2.6996
  111OSM   C18F11494   4.039   5.482   4.981 -0.7071  0.4278 -0.1645
  111OSM   H18F11495   4.011   5.578   4.932 -0.7486  1.1057  1.1310
  111OSM   H18G11496   4.031   5.509   5.089 -0.8898 -1.2072  0.2517
  111OSM   H18H11497   3.954   5.410   4.974  0.6336 -1.3192  0.8358
  112OSM      N11498   6.761   0.807   7.283  0.0932 -0.0125 -0.0944
  112OSM    C1511499   6.869   0.707   7.275  0.4023  0.0540  0.0085
  112OSM   H15A11500   6.835   0.605   7.282 -1.0650  0.2130 -3.2253
  112OSM   H15B11501   6.943   0.707   7.354  2.1091  0.9212 -1.5123
  112OSM   H15C11502   6.931   0.723   7.188 -0.4816 -2.0815 -1.0897
  112OSM    C1411503   6.683   0.788   7.410 -0.0308 -0.1327 -0.3770
  112OSM   H14A11504   6.596   0.852   7.400 -0.4059 -0.6491 -0.4595
  112OSM   H14B11505   6.732   0.813   7.502  1.6658 -0.4461 -1.1649
  112OSM   H14C11506   6.652   0.685   7.413  1.7678 -0.8193 -2.6313
  112OSM    C1311507   6.829   0.938   7.287  0.4778 -0.2074  0.0008
  112OSM   H13A11508   6.771   1.021   7.325  0.8986 -0.1475  0.5069
  112OSM   H13B11509   6.853   0.962   7.184  0.0816  0.2322  0.0045
  112OSM   H13C11510   6.923   0.931   7.339 -0.2015 -0.5043  1.2252
  112OSM    C1211511   6.672   0.798   7.167  0.0780  0.2518 -0.2498
  112OSM   H12A11512   6.583   0.858   7.180  0.3156  0.8191 -1.1376
  112OSM   H12B11513   6.639   0.696   7.161  0.3258  0.2160 -1.3327
  112OSM    C1111514   6.723   0.842   7.024  0.0591  0.1021  0.5960
  112OSM   H11A11515   6.770   0.942   7.022 -0.3850  0.3088 -1.4673
  112OSM   H11B11516   6.634   0.844   6.957  0.7417 -2.1470 -0.4893
  112OSM      P11517   6.772   0.605   6.910  0.0685 -0.0562  0.2406
  112OSM    O1311518   6.891   0.529   6.874  0.2615  0.1250  0.6856
  112OSM    O1411519   6.682   0.544   7.012  0.2017  0.2088 -0.5825
  112OSM    O1111520   6.683   0.636   6.780 -0.7222 -0.0441  1.0870
  112OSM    O1211521   6.820   0.755   6.964  0.1896  0.3250  0.0089
  112OSM    C1S11522   6.710   0.750   6.696 -0.3819 -0.4168  0.0762
  112OSM    H1S11523   6.798   0.806   6.736 -0.1716 -1.6130  1.3451
  112OSM    H1T11524   6.630   0.828   6.693  0.1313  0.1452  0.5681
  112OSM     NF11525   6.820   0.837   6.483  0.6612  0.0521  0.5813
  112OSM    HNF11526   6.759   0.902   6.438  0.7322  0.7646  1.4882
  112OSM    C2S11527   6.750   0.722   6.551 -1.0341  0.6737  0.9924
  112OSM    H2S11528   6.824   0.640   6.561 -1.6157  0.0817  0.5520
  112OSM    C3S11529   6.628   0.662   6.485  0.0445  0.2045  0.9933
  112OSM    H3S11530   6.547   0.738   6.491  0.6728  0.9316  0.5034
  112OSM     O311531   6.579   0.541   6.547  0.2138 -0.8559 -0.6776
  112OSM    HO311532   6.627   0.542   6.630 -0.7201 -2.7928 -0.0272
  112OSM    C4S11533   6.662   0.619   6.347 -0.4513 -0.4772 -0.0147
  112OSM    H4S11534   6.730   0.532   6.337  1.2093  0.7349  0.3432
  112OSM    C5S11535   6.606   0.658   6.231  0.6864 -0.2306  0.0941
  112OSM    H5S11536   6.526   0.733   6.237 -0.1261 -0.9590 -1.1508
  112OSM    C6S11537   6.638   0.613   6.094 -0.1422 -0.7627  0.1567
  112OSM    H6S11538   6.558   0.547   6.054  0.2139 -0.4923 -1.0427
  112OSM    H6T11539   6.733   0.556   6.099  0.6416  0.3798 -0.8642
  112OSM    C7S11540   6.665   0.726   6.001 -0.2428  0.7406  0.7657
  112OSM    H7S11541   6.745   0.800   6.021  0.4366 -0.1532  1.4253
  112OSM    H7T11542   6.577   0.794   5.992  0.4716  1.4444 -1.6945
  112OSM    C8S11543   6.697   0.683   5.858 -0.1719 -0.0355  0.5817
  112OSM    H8S11544   6.779   0.609   5.855 -0.2334 -0.2524  2.6565
  112OSM    H8T11545   6.719   0.774   5.797  2.6761 -0.1085  1.3589
  112OSM    C9S11546   6.579   0.623   5.778  0.3238 -0.1326 -0.7784
  112OSM    H9S11547   6.494   0.689   5.809 -0.3004  0.1143 -2.8605
  112OSM    H9T11548   6.552   0.521   5.812  1.0083  0.1244  0.5932
  112OSM   C10S11549   6.586   0.615   5.620 -1.5540  0.5326  0.4140
  112OSM   H10S11550   6.644   0.524   5.591  1.8921  1.8522  2.5477
  112OSM   H10T11551   6.635   0.701   5.570  0.5262 -1.1819 -0.7085
  112OSM   C11S11552   6.440   0.585   5.582 -0.1932  0.7073 -0.3126
  112OSM   H11S11553   6.375   0.672   5.604 -2.0832 -0.1314 -2.1962
  112OSM   H11T11554   6.416   0.486   5.628 -0.7869  2.1963  2.8288
  112OSM   C12S11555   6.416   0.570   5.431  0.3790  0.2635  0.1935
  112OSM   H12S11556   6.474   0.482   5.395  0.5815  0.7338 -0.6468
  112OSM   H12T11557   6.454   0.667   5.391 -1.2402  1.4933  1.4882
  112OSM   C13S11558   6.267   0.563   5.400  0.4306 -0.0485 -0.6893
  112OSM   H13S11559   6.209   0.627   5.471  1.8705  4.2570 -3.0191
  112OSM   H13T11560   6.247   0.454   5.403  1.0439 -0.1457  1.0750
  112OSM   C14S11561   6.243   0.607   5.260  0.3280  0.2606  0.6243
  112OSM   H14S11562   6.280   0.710   5.239  0.6895 -0.0417 -0.2536
  112OSM   H14T11563   6.133   0.591   5.254  0.0477  0.6348  3.4174
  112OSM   C15S11564   6.311   0.510   5.150 -0.4407 -0.0341  0.4696
  112OSM   H15S11565   6.272   0.407   5.166 -0.9458 -0.1661 -1.4189
  112OSM   H15T11566   6.420   0.515   5.173 -0.4741 -1.6971  1.0597
  112OSM   C16S11567   6.278   0.558   5.007 -0.0510  0.1273 -0.1574
  112OSM   H16S11568   6.288   0.669   5.004 -3.1696  0.4828 -0.5836
  112OSM   H16T11569   6.170   0.543   4.990  0.2917 -0.8633 -1.6597
  112OSM   C17S11570   6.350   0.495   4.897 -0.5513 -0.2019 -0.2760
  112OSM   H17S11571   6.322   0.388   4.907 -1.8252  0.1772  0.3952
  112OSM   H17T11572   6.457   0.513   4.921 -0.3403  2.0093 -2.4116
  112OSM   C18S11573   6.311   0.545   4.753  0.0211 -0.6196 -0.5122
  112OSM   H18S11574   6.355   0.643   4.726  0.4632 -0.8819 -0.7670
  112OSM   H18T11575   6.202   0.534   4.738 -0.3164  2.1319 -0.4604
  112OSM   H18U11576   6.351   0.470   4.681 -1.4339  1.6821 -3.9808
  112OSM    C1F11577   6.948   0.872   6.499 -0.1254 -0.2312  0.4620
  112OSM     OF11578   7.013   0.821   6.585  0.0878 -0.0233  0.2745
  112OSM    C2F11579   6.995   0.984   6.407 -0.5917  1.0505 -1.1346
  112OSM    H2F11580   7.018   1.070   6.473  0.4404 -1.7065  2.4557
  112OSM    H2G11581   6.916   1.020   6.338 -1.7063 -0.0461 -0.4847
  112OSM    C3F11582   7.118   0.953   6.325 -0.3701 -0.1835 -0.3271
  112OSM    H3F11583   7.197   0.941   6.403  3.1707  2.5171 -3.1254
  112OSM    H3G11584   7.145   1.039   6.260 -1.1225  1.1075  1.0142
  112OSM    C4F11585   7.101   0.832   6.230 -0.3799  0.0377  0.2339
  112OSM    H4F11586   7.050   0.746   6.279 -0.0990 -1.5924 -2.1618
  112OSM    H4G11587   7.199   0.786   6.205  0.5290  2.8021 -1.6962
  112OSM    C5F11588   7.050   0.856   6.094  0.1961 -0.2285  0.9724
  112OSM    H5F11589   6.953   0.909   6.098  0.1881 -0.1362 -0.2339
  112OSM    H5G11590   7.031   0.756   6.049  3.4104  1.3110 -4.7252
  112OSM    C6F11591   7.154   0.910   6.003 -0.1551 -0.2184 -0.3898
  112OSM    H6F11592   7.237   0.841   5.977 -0.3044 -0.8869  0.8471
  112OSM    H6G11593   7.188   1.010   6.040 -0.8378 -0.7033  1.6618
  112OSM    C7F11594   7.109   0.935   5.855  0.3222  0.0411 -0.5445
  112OSM    H7F11595   7.078   0.835   5.817  1.6742 -2.7432  4.6699
  112OSM    H7G11596   7.197   0.963   5.794 -1.3958  1.9754 -2.2720
  112OSM    C8F11597   6.990   1.037   5.843 -0.2815 -0.0735  0.0394
  112OSM    H8F11598   7.008   1.111   5.923 -1.7231 -0.8371  1.1024
  112OSM    H8G11599   6.894   0.984   5.862  0.5137 -1.6274 -0.1136
  112OSM    C9F11600   6.987   1.104   5.705 -0.5424 -0.6187 -0.5392
  112OSM    H9F11601   7.063   1.183   5.701  0.0551 -1.1791 -0.4459
  112OSM   C10F11602   6.903   1.082   5.597  0.2735 -0.6761  0.1382
  112OSM   H10F11603   6.918   1.146   5.508 -1.5171 -1.5370 -0.8228
  112OSM   C11F11604   6.779   0.988   5.592 -0.8522 -0.3845 -0.0268
  112OSM   H11F11605   6.756   0.961   5.697  0.7920 -0.0963  0.4309
  112OSM   H11G11606   6.812   0.895   5.540 -2.5780 -1.0544 -0.0012
  112OSM   C12F11607   6.643   1.029   5.526 -0.0140  0.1782  0.0760
  112OSM   H12F11608   6.611   1.119   5.584 -0.8903 -0.5803  0.7914
  112OSM   H12G11609   6.575   0.942   5.534 -0.6466  0.7191  0.6424
  112OSM   C13F11610   6.660   1.075   5.386  0.4870 -0.7247  0.2013
  112OSM   H13F11611   6.733   1.157   5.397 -0.3624 -0.1106  1.6442
  112OSM   H13G11612   6.577   1.133   5.342  0.6231 -1.2204 -0.7250
  112OSM   C14F11613   6.709   0.961   5.288 -0.3856  0.2633 -0.2438
  112OSM   H14F11614   6.630   0.888   5.257 -1.8423  1.6996 -0.0786
  112OSM   H14G11615   6.790   0.898   5.331 -0.2427  1.1008  0.7681
  112OSM   C15F11616   6.740   1.016   5.147 -0.0165 -0.4957 -0.1183
  112OSM   H15F11617   6.665   1.096   5.128 -1.1965 -2.1797 -3.3450
  112OSM   H15G11618   6.721   0.938   5.071  2.3662 -0.6519 -0.6221
  112OSM   C16F11619   6.880   1.068   5.124 -0.3990  0.3098 -0.0511
  112OSM   H16F11620   6.948   0.982   5.143  0.5638  1.1179  0.2668
  112OSM   H16G11621   6.901   1.157   5.188  0.6010  1.3251 -1.7122
  112OSM   C17F11622   6.909   1.103   4.979  0.0600  0.0004  0.6747
  112OSM   H17F11623   6.827   1.163   4.933 -1.2820 -0.8895  1.8186
  112OSM   H17G11624   6.919   1.003   4.933 -1.5536 -1.0937  2.5406
  112OSM   C18F11625   7.032   1.195   4.962 -0.4420 -0.1130 -0.3794
  112OSM   H18F11626   7.120   1.145   5.007  0.4039  1.7352  0.0927
  112OSM   H18G11627   7.020   1.289   5.020 -3.4344  0.9823 -2.5091
  112OSM   H18H11628   7.059   1.226   4.859  1.1765 -1.2998 -0.3477
  113OSM      N11629   3.968   3.326   7.378  0.0264  0.0122  0.2625
  113OSM    C1511630   3.938   3.245   7.503 -0.5362 -0.2719 -0.3227
  113OSM   H15A11631   3.838   3.268   7.538  0.1131  0.3175  1.2430
  113OSM   H15B11632   4.016   3.262   7.576  0.0978 -2.2054 -0.5085
  113OSM   H15C11633   3.926   3.141   7.477 -2.5344  0.5601 -3.3384
  113OSM    C1411634   3.959   3.473   7.411 -0.2629 -0.5600  0.5069
  113OSM   H14A11635   4.026   3.497   7.492  0.3717  1.5223 -0.5710
  113OSM   H14B11636   3.860   3.510   7.435 -0.1576 -0.6507  1.0915
  113OSM   H14C11637   3.995   3.529   7.325 -0.8314 -0.3005  0.4347
  113OSM    C1311638   4.110   3.303   7.327  0.4089 -0.3691 -0.0983
  113OSM   H13A11639   4.120   3.201   7.295  0.4130 -0.7428  1.0634
  113OSM   H13B11640   4.187   3.322   7.400  0.2668  0.4651 -0.1464
  113OSM   H13C11641   4.124   3.366   7.240 -1.0228  0.8886  0.5352
  113OSM    C1211642   3.867   3.295   7.268  0.5441  0.0641 -0.0535
  113OSM   H12A11643   3.892   3.348   7.178  0.1074  1.3461  0.5652
  113OSM   H12B11644   3.769   3.339   7.281 -0.6273 -2.5055  0.6719
  113OSM    C1111645   3.837   3.148   7.230 -0.5325  0.5427 -0.4389
  113OSM   H11A11646   3.937   3.100   7.233 -0.1912  1.2715  1.7817
  113OSM   H11B11647   3.799   3.144   7.126  2.5135  0.5324 -1.6431
  113OSM      P11648   3.601   3.092   7.324 -0.0104 -0.2614 -0.1401
  113OSM    O1311649   3.544   2.972   7.389 -0.1461 -0.6901  0.1838
  113OSM    O1411650   3.558   3.222   7.390 -0.1588  0.3050  0.8458
  113OSM    O1111651   3.557   3.092   7.166  0.2465  0.1003 -0.2564
  113OSM    O1211652   3.755   3.076   7.318  0.3934  0.0198  0.0368
  113OSM    C1S11653   3.568   2.968   7.100  1.0453  0.7790  0.7281
  113OSM    H1S11654   3.485   2.898   7.124  0.1805  0.2093 -3.2236
  113OSM    H1T11655   3.661   2.916   7.132  1.0703 -0.1304 -0.7445
  113OSM     NF11656   3.585   2.857   6.879 -0.1682 -0.1322 -0.1181
  113OSM    HNF11657   3.681   2.830   6.873 -0.4793 -0.9931 -1.4826
  113OSM    C2S11658   3.552   2.983   6.945 -0.1272  0.3622  0.0623
  113OSM    H2S11659   3.447   3.009   6.919 -0.8094 -1.3049  0.9591
  113OSM    C3S11660   3.648   3.092   6.885  0.2906  0.7037 -0.1391
  113OSM    H3S11661   3.751   3.055   6.899  0.1407  0.1696 -0.4019
  113OSM     O311662   3.630   3.216   6.952  0.2927  0.1241 -0.5030
  113OSM    HO311663   3.594   3.195   7.039 -0.5658  1.7035 -0.4387
  113OSM    C4S11664   3.607   3.122   6.741  0.1736 -0.2013  0.2268
  113OSM    H4S11665   3.519   3.186   6.731 -0.3499 -0.8740  0.4293
  113OSM    C5S11666   3.664   3.059   6.637  0.1890 -0.0166  0.3213
  113OSM    H5S11667   3.744   2.986   6.658  0.0261 -0.3662 -0.2476
  113OSM    C6S11668   3.637   3.073   6.488  0.6829 -0.2124 -0.1983
  113OSM    H6S11669   3.734   3.062   6.435  2.0643  0.4076  2.0631
  113OSM    H6T11670   3.585   3.169   6.468  0.7574  0.1316  1.1470
  113OSM    C7S11671   3.545   2.957   6.445 -0.3508 -0.3852  0.6768
  113OSM    H7S11672   3.460   2.939   6.514 -2.4566 -1.3678 -2.0038
  113OSM    H7T11673   3.603   2.864   6.428 -0.6516 -0.1039 -2.5216
  113OSM    C8S11674   3.478   2.993   6.311  0.2884  0.3606 -0.9321
  113OSM    H8S11675   3.550   3.019   6.230 -1.4654  2.1372 -1.9793
  113OSM    H8T11676   3.442   3.095   6.335  3.0410  1.3890 -0.7302
  113OSM    C9S11677   3.366   2.905   6.264 -0.2730  0.7443  0.1493
  113OSM    H9S11678   3.298   2.885   6.349 -1.3613 -0.9362 -1.0678
  113OSM    H9T11679   3.406   2.803   6.246 -0.2728  0.6283  0.7669
  113OSM   C10S11680   3.283   2.966   6.151  0.4698  0.3268  0.7376
  113OSM   H10S11681   3.234   3.059   6.187  0.3969 -0.5745  3.0990
  113OSM   H10T11682   3.191   2.904   6.156  1.6509 -1.4037  2.2365
  113OSM   C11S11683   3.339   2.968   6.015 -0.5182  0.5968  0.7356
  113OSM   H11S11684   3.370   2.866   5.985  1.0411  0.8320  1.4614
  113OSM   H11T11685   3.432   3.030   6.012  0.1240 -0.2456 -3.1751
  113OSM   C12S11686   3.238   3.029   5.909  0.0824  0.4019 -0.1427
  113OSM   H12S11687   3.214   3.136   5.925 -0.8418 -0.0563  1.9367
  113OSM   H12T11688   3.143   2.971   5.903  0.0185 -0.0731  3.3769
  113OSM   C13S11689   3.295   3.023   5.770 -0.5083  0.6682  0.2965
  113OSM   H13S11690   3.319   2.917   5.745 -1.5383  1.0303 -2.6235
  113OSM   H13T11691   3.397   3.065   5.762 -0.6633  0.8711 -0.6912
  113OSM   C14S11692   3.201   3.077   5.661  0.5041  1.2153 -0.4422
  113OSM   H14S11693   3.190   3.186   5.683 -0.3025  0.6718  2.2721
  113OSM   H14T11694   3.105   3.021   5.666  0.5043  1.2392 -0.1498
  113OSM   C15S11695   3.263   3.037   5.523  1.0638 -0.2722 -0.3519
  113OSM   H15S11696   3.284   2.928   5.518  0.3330 -0.4085 -0.6552
  113OSM   H15T11697   3.359   3.088   5.502  0.0091  2.3818  0.8803
  113OSM   C16S11698   3.171   3.075   5.408  0.1480 -0.4123 -0.0281
  113OSM   H16S11699   3.168   3.186   5.402  0.5338 -0.4438 -1.2748
  113OSM   H16T11700   3.067   3.039   5.418  0.1016 -0.4622 -0.6139
  113OSM   C17S11701   3.210   3.012   5.271  0.1367 -0.0799  0.7591
  113OSM   H17S11702   3.191   2.905   5.295 -4.9434  0.2154 -0.6391
  113OSM   H17T11703   3.313   3.045   5.247 -0.0942 -1.3803 -2.5724
  113OSM   C18S11704   3.107   3.059   5.168  0.1779  0.2560 -0.8491
  113OSM   H18S11705   3.124   3.169   5.176  1.0056  0.0035  1.6952
  113OSM   H18T11706   3.005   3.036   5.205  0.5178 -0.9617 -0.6207
  113OSM   H18U11707   3.122   3.019   5.066  0.1761 -1.5970 -0.1551
  113OSM    C1F11708   3.485   2.772   6.853 -0.0927 -0.1348  0.3757
  113OSM     OF11709   3.370   2.802   6.879 -1.0554 -0.0413  0.0591
  113OSM    C2F11710   3.531   2.637   6.811  0.1343  0.5341  0.1623
  113OSM    H2F11711   3.517   2.552   6.881 -1.3346 -1.8199 -2.7532
  113OSM    H2G11712   3.640   2.637   6.787  0.1284 -2.3948 -0.3093
  113OSM    C3F11713   3.465   2.591   6.669 -0.3052 -0.4784 -0.0726
  113OSM    H3F11714   3.433   2.674   6.602 -2.1821 -0.7075  0.4655
  113OSM    H3G11715   3.363   2.554   6.691 -0.4988  0.8681  1.5268
  113OSM    C4F11716   3.551   2.486   6.599 -0.3401  0.4883  0.3140
  113OSM    H4F11717   3.497   2.422   6.526 -2.2797  1.9657  0.3635
  113OSM    H4G11718   3.589   2.423   6.682  1.2407  2.2820  1.0402
  113OSM    C5F11719   3.664   2.549   6.514  0.0522 -0.5489  0.2087
  113OSM    H5F11720   3.680   2.654   6.545  2.8242 -0.6870 -0.5000
  113OSM    H5G11721   3.628   2.568   6.410  1.0344  1.1560  0.1453
  113OSM    C6F11722   3.789   2.464   6.490 -0.1164 -0.5364  0.0327
  113OSM    H6F11723   3.859   2.517   6.422  0.5116 -1.7635 -0.3179
  113OSM    H6G11724   3.760   2.370   6.438 -0.2346 -0.2000 -0.5096
  113OSM    C7F11725   3.858   2.429   6.625 -0.5467 -0.4918 -0.0728
  113OSM    H7F11726   3.820   2.332   6.663  0.2094 -1.0882 -0.8309
  113OSM    H7G11727   3.841   2.506   6.704 -2.0076  1.0449 -1.7778
  113OSM    C8F11728   4.007   2.410   6.595  0.2931  0.0962  0.4679
  113OSM    H8F11729   4.054   2.393   6.694 -1.6557 -0.3758  1.3603
  113OSM    H8G11730   4.035   2.513   6.568  0.2149  0.4621  1.7113
  113OSM    C9F11731   4.047   2.305   6.494 -0.0650 -0.4505 -0.2395
  113OSM    H9F11732   4.020   2.202   6.519 -2.3078  0.1414 -0.0225
  113OSM   C10F11733   4.110   2.324   6.378  0.6670 -0.2198  0.0864
  113OSM   H10F11734   4.117   2.237   6.311 -0.5643  0.2139 -0.6382
  113OSM   C11F11735   4.152   2.457   6.320  0.0038 -0.1294  0.6050
  113OSM   H11F11736   4.113   2.546   6.372  0.9412  0.2274  0.7212
  113OSM   H11G11737   4.101   2.461   6.221  1.4496  0.9019 -0.1383
  113OSM   C12F11738   4.303   2.466   6.298 -0.3218  0.0631 -0.0288
  113OSM   H12F11739   4.360   2.450   6.392 -0.8774  1.6412  0.5967
  113OSM   H12G11740   4.309   2.573   6.270 -1.0631  0.4411  1.2068
  113OSM   C13F11741   4.351   2.397   6.171  0.1736  1.1440 -0.3449
  113OSM   H13F11742   4.308   2.295   6.159  3.0843 -0.2567  0.2874
  113OSM   H13G11743   4.462   2.392   6.167  0.1280 -0.9741  0.0440
  113OSM   C14F11744   4.317   2.486   6.053  0.3918  0.5399  0.8183
  113OSM   H14F11745   4.378   2.578   6.064  1.1451  0.2185 -0.4472
  113OSM   H14G11746   4.208   2.506   6.048  0.3230  0.9066  3.0079
  113OSM   C15F11747   4.354   2.414   5.917 -0.0729 -0.2331  0.2393
  113OSM   H15F11748   4.323   2.308   5.926  2.1324 -1.0732 -1.3163
  113OSM   H15G11749   4.465   2.412   5.911  0.0319 -0.3726  1.8820
  113OSM   C16F11750   4.294   2.478   5.792 -0.0061 -0.2653  0.0216
  113OSM   H16F11751   4.362   2.428   5.720 -0.1834  0.3210 -0.5565
  113OSM   H16G11752   4.326   2.585   5.793 -1.2607  0.1673 -1.9392
  113OSM   C17F11753   4.144   2.472   5.775 -0.4757  0.6638 -0.1042
  113OSM   H17F11754   4.078   2.532   5.842  0.1795  2.9372 -1.3693
  113OSM   H17G11755   4.124   2.364   5.785  0.1383  0.5192 -0.3691
  113OSM   C18F11756   4.090   2.509   5.639 -0.4759 -0.3543  0.5013
  113OSM   H18F11757   4.146   2.441   5.571  2.0240 -1.5523  3.4974
  113OSM   H18G11758   4.129   2.608   5.608  1.4045 -1.3534 -0.4806
  113OSM   H18H11759   3.980   2.497   5.633 -0.5979  0.9374 -0.1161
  114OSM      N11760   3.153   1.679   7.462  0.7313 -0.1188 -1.3409
  114OSM    C1511761   3.094   1.554   7.526  0.1724 -0.6868  0.9764
  114OSM   H15A11762   3.162   1.505   7.595  0.3682 -2.9152 -0.7058
  114OSM   H15B11763   3.078   1.478   7.451  0.1800 -0.0584  0.3252
  114OSM   H15C11764   3.002   1.581   7.576 -0.3828 -0.6135 -0.0596
  114OSM    C1411765   3.047   1.765   7.406  0.1728 -0.5097  0.0126
  114OSM   H14A11766   2.995   1.705   7.333 -0.8446  1.4243 -0.9359
  114OSM   H14B11767   3.075   1.859   7.361  0.3813  0.2298  1.6244
  114OSM   H14C11768   2.980   1.803   7.482 -0.5275  3.3618 -2.2463
  114OSM    C1311769   3.231   1.757   7.568  0.3565 -0.6026  0.0172
  114OSM   H13A11770   3.170   1.792   7.650  2.7549  1.5859  0.9752
  114OSM   H13B11771   3.280   1.844   7.529 -3.1148  2.0952  1.1482
  114OSM   H13C11772   3.307   1.689   7.604  0.7134 -0.5355 -0.5948
  114OSM    C1211773   3.256   1.639   7.357 -0.2973  0.0835 -0.3890
  114OSM   H12A11774   3.323   1.563   7.396 -0.3161  0.2648  0.0057
  114OSM   H12B11775   3.309   1.731   7.340  1.6739 -0.8268  0.4999
  114OSM    C1111776   3.197   1.583   7.227 -0.4754 -0.7227 -0.8046
  114OSM   H11A11777   3.294   1.576   7.172  0.9778  1.6581  1.1998
  114OSM   H11B11778   3.126   1.655   7.181  0.5206  1.4642  0.8938
  114OSM      P11779   3.213   1.320   7.251 -0.4422 -0.0859 -0.1985
  114OSM    O1311780   3.350   1.332   7.307  0.6549 -0.2715  0.4043
  114OSM    O1411781   3.132   1.215   7.315  0.0289  0.3808 -0.2381
  114OSM    O1111782   3.216   1.310   7.091  0.0280  0.0415 -0.1843
  114OSM    O1211783   3.140   1.459   7.261  0.6543  1.0771  0.2207
  114OSM    C1S11784   3.097   1.295   7.022  0.1005  0.5508 -0.1153
  114OSM    H1S11785   3.021   1.371   7.052 -0.4785 -0.1931  0.3376
  114OSM    H1T11786   3.051   1.196   7.043 -1.1000  1.3384  1.1439
  114OSM     NF11787   2.999   1.271   6.801 -0.5379  0.1300 -0.3453
  114OSM    HNF11788   2.986   1.175   6.778 -1.5604  0.7016 -2.4112
  114OSM    C2S11789   3.120   1.307   6.862  0.1625  0.0718 -0.1742
  114OSM    H2S11790   3.133   1.417   6.854  1.0036 -0.0919 -1.2401
  114OSM    C3S11791   3.250   1.244   6.806 -0.4024  0.2834 -0.1731
  114OSM    H3S11792   3.250   1.134   6.822  0.6929  0.5184  1.8745
  114OSM     O311793   3.364   1.290   6.879 -0.7809 -0.5556  0.0953
  114OSM    HO311794   3.335   1.333   6.960 -1.7572  0.3597 -0.7245
  114OSM    C4S11795   3.265   1.264   6.657 -0.8649 -0.5686 -0.2396
  114OSM    H4S11796   3.252   1.370   6.633 -1.4607 -0.0041  2.2747
  114OSM    C5S11797   3.289   1.163   6.564  0.0669  0.1874 -0.0771
  114OSM    H5S11798   3.291   1.060   6.600  5.9591  0.2422  0.8551
  114OSM    C6S11799   3.305   1.190   6.417 -0.1692  0.0481  0.0371
  114OSM    H6S11800   3.219   1.139   6.367  0.7750 -0.9456 -0.6240
  114OSM    H6T11801   3.399   1.142   6.383 -0.9272 -0.5930 -1.2420
  114OSM    C7S11802   3.315   1.337   6.375 -0.0112  0.4175  0.0154
  114OSM    H7S11803   3.399   1.388   6.426  0.7642 -1.6777  0.9433
  114OSM    H7T11804   3.221   1.387   6.407 -1.3133 -1.4507 -0.6813
  114OSM    C8S11805   3.342   1.357   6.225 -0.7647  0.4627 -0.0446
  114OSM    H8S11806   3.421   1.293   6.179 -2.7603 -0.7349 -2.0479
  114OSM    H8T11807   3.376   1.462   6.219  1.3652 -0.1963 -0.2946
  114OSM    C9S11808   3.217   1.325   6.143  0.5459  0.1227 -0.3460
  114OSM    H9S11809   3.134   1.367   6.203  0.0629  1.6305 -1.9728
  114OSM    H9T11810   3.189   1.218   6.140 -0.5628  0.3708  0.3377
  114OSM   C10S11811   3.220   1.397   6.007  0.2756  0.0614 -0.5672
  114OSM   H10S11812   3.259   1.501   6.012  1.2660 -0.3626  1.9365
  114OSM   H10T11813   3.116   1.397   5.967 -0.4316 -1.8030  1.1081
  114OSM   C11S11814   3.302   1.318   5.904 -0.5403  0.2791 -0.0384
  114OSM   H11S11815   3.292   1.208   5.911 -2.8229  0.2753 -2.1770
  114OSM   H11T11816   3.409   1.346   5.918 -0.1448 -0.8748 -0.6659
  114OSM   C12S11817   3.269   1.360   5.761  0.1864  0.4559 -0.4325
  114OSM   H12S11818   3.253   1.469   5.750  1.0500  0.7546  0.9976
  114OSM   H12T11819   3.168   1.318   5.745  0.9636 -2.6862  1.7665
  114OSM   C13S11820   3.356   1.298   5.653  0.3641  0.3153  0.2156
  114OSM   H13S11821   3.388   1.194   5.674 -2.3284 -0.9184 -1.3726
  114OSM   H13T11822   3.446   1.362   5.636 -1.3247  2.7956  0.0582
  114OSM   C14S11823   3.280   1.279   5.524 -0.1770  0.5640 -0.2508
  114OSM   H14S11824   3.252   1.383   5.495  0.8948  0.9756  0.1447
  114OSM   H14T11825   3.198   1.209   5.549 -0.8371  1.0836 -0.9213
  114OSM   C15S11826   3.375   1.222   5.415  0.0239  0.2646 -0.2410
  114OSM   H15S11827   3.398   1.118   5.448 -2.0330 -0.2391 -0.2386
  114OSM   H15T11828   3.459   1.292   5.402  0.3095 -0.1862 -0.8555
  114OSM   C16S11829   3.315   1.220   5.276  0.4607  0.5371  0.5530
  114OSM   H16S11830   3.394   1.192   5.203 -1.0367 -1.8150 -0.2821
  114OSM   H16T11831   3.276   1.321   5.250  1.3627  1.0817  1.2877
  114OSM   C17S11832   3.201   1.115   5.253  0.4527 -0.1800 -0.2567
  114OSM   H17S11833   3.120   1.134   5.327 -0.8062 -0.7597 -1.4439
  114OSM   H17T11834   3.247   1.015   5.264 -0.0690 -0.2960  1.0985
  114OSM   C18S11835   3.135   1.124   5.113  0.2525 -0.5004 -0.5582
  114OSM   H18S11836   3.103   1.231   5.106  0.8046 -0.3228 -0.4344
  114OSM   H18T11837   3.052   1.051   5.104  1.9359 -2.2402 -3.2408
  114OSM   H18U11838   3.211   1.105   5.035  0.3666 -1.3706 -0.2415
  114OSM    C1F11839   2.886   1.341   6.796 -0.5283 -0.3753 -0.3060
  114OSM     OF11840   2.883   1.451   6.855  0.3528  0.4331 -0.7025
  114OSM    C2F11841   2.778   1.290   6.709 -0.3258  0.3663  0.6052
  114OSM    H2F11842   2.686   1.327   6.758 -1.0744 -0.6448 -0.0158
  114OSM    H2G11843   2.779   1.179   6.710  2.3152  0.3092 -0.2214
  114OSM    C3F11844   2.785   1.344   6.561 -0.4098 -0.5818 -0.0481
  114OSM    H3F11845   2.704   1.313   6.492  2.1468 -0.0318 -3.6119
  114OSM    H3G11846   2.877   1.299   6.518  0.2813  1.0165 -0.3201
  114OSM    C4F11847   2.811   1.495   6.563  0.1456 -0.4943  0.2540
  114OSM    H4F11848   2.910   1.520   6.606  0.3438  0.6529 -0.8227
  114OSM    H4G11849   2.736   1.549   6.625  0.2320  0.2405 -0.2649
  114OSM    C5F11850   2.800   1.557   6.423  0.3158 -0.3836  0.3579
  114OSM    H5F11851   2.768   1.663   6.424 -1.3287 -0.8554  0.3463
  114OSM    H5G11852   2.709   1.510   6.380 -0.3784  1.5129 -0.3577
  114OSM    C6F11853   2.920   1.525   6.333 -0.3457 -0.0318  0.8095
  114OSM    H6F11854   2.925   1.418   6.305  2.8498  0.7161 -2.3119
  114OSM    H6G11855   3.015   1.532   6.390  0.7423 -1.8063 -0.6475
  114OSM    C7F11856   2.918   1.601   6.199  0.8253  0.0106 -0.4384
  114OSM    H7F11857   2.998   1.559   6.134 -1.2837 -1.6018 -2.1421
  114OSM    H7G11858   2.949   1.707   6.210  1.4715 -0.2195  0.0399
  114OSM    C8F11859   2.793   1.617   6.115 -0.8414 -0.5716 -0.0452
  114OSM    H8F11860   2.846   1.658   6.026  0.6027  0.5089  1.2696
  114OSM    H8G11861   2.734   1.702   6.154  0.1215  0.9383 -1.7405
  114OSM    C9F11862   2.704   1.492   6.083 -0.0089  0.2469  1.1855
  114OSM    H9F11863   2.659   1.433   6.164 -2.6776 -2.0616 -1.6991
  114OSM   C10F11864   2.672   1.450   5.963  0.1565 -0.2091 -0.1687
  114OSM   H10F11865   2.620   1.353   5.955  1.1637 -0.8060  0.3814
  114OSM   C11F11866   2.724   1.511   5.831  0.0502 -0.1155 -0.6721
  114OSM   H11F11867   2.808   1.445   5.802 -1.5699 -2.7222  0.2816
  114OSM   H11G11868   2.771   1.612   5.840 -0.3285 -0.0405  0.7727
  114OSM   C12F11869   2.617   1.497   5.720 -0.4009  0.0049 -0.9438
  114OSM   H12F11870   2.517   1.526   5.760  0.3571 -0.0105  1.0589
  114OSM   H12G11871   2.615   1.387   5.706 -3.1442 -0.3728  1.5622
  114OSM   C13F11872   2.647   1.562   5.588  0.5816 -0.3333  0.2604
  114OSM   H13F11873   2.729   1.503   5.542 -1.6465 -1.7711 -2.1256
  114OSM   H13G11874   2.681   1.667   5.602 -0.2232  0.1608 -1.2673
  114OSM   C14F11875   2.527   1.565   5.496  0.3958  0.1230 -0.3283
  114OSM   H14F11876   2.561   1.589   5.393  0.1467 -1.8751 -0.9134
  114OSM   H14G11877   2.460   1.643   5.539  2.8111  2.1922 -0.0944
  114OSM   C15F11878   2.452   1.432   5.479 -0.1996 -0.1387  1.0297
  114OSM   H15F11879   2.402   1.419   5.577 -3.6832  4.1363  0.1651
  114OSM   H15G11880   2.517   1.347   5.450  0.3209  0.5279  0.1955
  114OSM   C16F11881   2.345   1.428   5.367 -0.7917  0.5678 -0.6022
  114OSM   H16F11882   2.270   1.510   5.377 -0.4884  1.0383 -2.0286
  114OSM   H16G11883   2.288   1.333   5.372 -0.0078 -0.0177 -2.1566
  114OSM   C17F11884   2.397   1.435   5.232 -0.5018 -0.6509  0.6723
  114OSM   H17F11885   2.486   1.371   5.215  2.2549  2.2464  2.9165
  114OSM   H17G11886   2.436   1.535   5.202 -1.7119 -0.7074 -1.2295
  114OSM   C18F11887   2.285   1.390   5.130 -0.1829  0.6579 -0.3743
  114OSM   H18F11888   2.234   1.299   5.168  0.7382  0.3431  0.1364
  114OSM   H18G11889   2.326   1.366   5.029  2.8442  3.8026 -0.0676
  114OSM   H18H11890   2.203   1.464   5.127 -1.1191 -0.3306  0.1743
  115OSM      N11891   1.610   3.293   7.221 -0.3998  0.0842 -0.9569
  115OSM    C1511892   1.720   3.323   7.315  0.3260 -0.1248 -0.1936
  115OSM   H15A11893   1.680   3.320   7.415 -1.3865  1.1852 -0.7886
  115OSM   H15B11894   1.776   3.415   7.304  1.2632 -0.7966 -1.4342
  115OSM   H15C11895   1.796   3.248   7.300  0.0169 -1.2026  2.8722
  115OSM    C1411896   1.540   3.167   7.270  0.1792  0.1411 -0.3571
  115OSM   H14A11897   1.454   3.129   7.216 -0.4714 -0.2515  0.9297
  115OSM   H14B11898   1.498   3.185   7.368 -0.7691 -2.2086 -0.2772
  115OSM   H14C11899   1.608   3.084   7.281 -1.6670 -1.1794  1.9534
  115OSM    C1311900   1.526   3.412   7.217  0.5928  0.1315 -0.7443
  115OSM   H13A11901   1.470   3.425   7.308  1.7785 -1.7579  0.2953
  115OSM   H13B11902   1.464   3.410   7.128 -0.5845 -1.3513  0.0785
  115OSM   H13C11903   1.594   3.494   7.197  1.7340  0.0071  2.1407
  115OSM    C1211904   1.676   3.272   7.083  0.9774  0.0515  0.7785
  115OSM   H12A11905   1.597   3.271   7.008  1.8788 -0.7832 -0.1977
  115OSM   H12B11906   1.713   3.171   7.082  2.3140  0.4695  2.8558
  115OSM    C1111907   1.786   3.368   7.038 -1.1513  0.4189 -0.3325
  115OSM   H11A11908   1.814   3.335   6.936  1.0021  1.3854 -0.0969
  115OSM   H11B11909   1.878   3.342   7.095 -0.6192 -1.2159 -1.8383
  115OSM      P11910   1.860   3.611   7.016  0.4238  0.0846 -0.5817
  115OSM    O1311911   1.814   3.734   7.084  0.6896 -0.1791  0.0193
  115OSM    O1411912   1.993   3.549   7.045 -0.4176 -0.3022 -0.1058
  115OSM    O1111913   1.859   3.643   6.866  0.0093  0.0066 -0.3135
  115OSM    O1211914   1.748   3.502   7.031  0.3892  0.4086 -0.9152
  115OSM    C1S11915   1.762   3.740   6.825  0.3009 -0.8966  0.3350
  115OSM    H1S11916   1.770   3.836   6.880  0.3033  0.3543 -1.7249
  115OSM    H1T11917   1.662   3.697   6.848  0.4465 -0.8845  0.9955
  115OSM     NF11918   1.684   3.859   6.627 -0.4354  0.4301  0.2068
  115OSM    HNF11919   1.586   3.856   6.610 -0.9023  1.2103  2.3662
  115OSM    C2S11920   1.756   3.742   6.667  0.3264  0.2163  0.0232
  115OSM    H2S11921   1.859   3.749   6.626 -0.3414 -2.0280 -2.2303
  115OSM    C3S11922   1.697   3.614   6.612 -0.1014  0.2714  0.1584
  115OSM    H3S11923   1.592   3.618   6.648 -0.1910 -0.4595 -0.0038
  115OSM     O311924   1.750   3.494   6.666 -0.1578  0.1085  0.4341
  115OSM    HO311925   1.805   3.519   6.742 -0.3566 -0.2016  0.6801
  115OSM    C4S11926   1.705   3.603   6.462 -0.3310  0.0275 -0.1864
  115OSM    H4S11927   1.810   3.599   6.432 -0.2171  0.9121  0.0686
  115OSM    C5S11928   1.599   3.596   6.380  0.3239 -0.4367  0.4896
  115OSM    H5S11929   1.494   3.601   6.415  0.1583  1.4088 -0.1552
  115OSM    C6S11930   1.601   3.581   6.228  0.4994  0.1531  0.2729
  115OSM    H6S11931   1.504   3.618   6.187 -0.2144 -1.7134  0.1588
  115OSM    H6T11932   1.604   3.471   6.210 -1.6029 -0.5034  3.1314
  115OSM    C7S11933   1.697   3.680   6.164  0.3106  0.4763  0.2263
  115OSM    H7S11934   1.802   3.654   6.188  0.2259  0.5378  0.6703
  115OSM    H7T11935   1.683   3.781   6.209 -3.1160  0.7468 -1.0767
  115OSM    C8S11936   1.671   3.694   6.012 -0.0262  0.4175 -0.6040
  115OSM    H8S11937   1.569   3.734   5.994 -1.5454 -2.7520  0.1279
  115OSM    H8T11938   1.674   3.595   5.961 -1.3851  1.6002 -3.1865
  115OSM    C9S11939   1.773   3.787   5.949 -0.0144  0.0194  0.5831
  115OSM    H9S11940   1.872   3.762   5.992 -0.0163 -1.0321  0.0045
  115OSM    H9T11941   1.740   3.886   5.987 -2.6281  0.4107 -2.2889
  115OSM   C10S11942   1.768   3.794   5.798  0.4853 -0.4469 -0.1903
  115OSM   H10S11943   1.813   3.697   5.768 -0.1343 -0.6601 -0.4555
  115OSM   H10T11944   1.830   3.877   5.756 -1.6094  0.4081 -1.8092
  115OSM   C11S11945   1.616   3.791   5.741 -1.0493 -0.3748 -0.6448
  115OSM   H11S11946   1.566   3.883   5.778 -0.0551  0.1260 -0.4971
  115OSM   H11T11947   1.573   3.697   5.780  0.9217 -0.5750  1.2405
  115OSM   C12S11948   1.625   3.791   5.579  0.3689  0.3386  0.5215
  115OSM   H12S11949   1.528   3.745   5.553 -0.2358  1.3276  0.9761
  115OSM   H12T11950   1.707   3.719   5.555 -0.0174 -0.4185  1.4094
  115OSM   C13S11951   1.656   3.923   5.512  0.2379  0.2019 -0.3066
  115OSM   H13S11952   1.753   3.969   5.541  0.8828 -0.9407 -0.5778
  115OSM   H13T11953   1.569   3.988   5.533 -0.0716 -0.7217  1.5372
  115OSM   C14S11954   1.658   3.925   5.350 -0.8991  0.6336 -0.2897
  115OSM   H14S11955   1.554   3.909   5.313 -0.9899 -1.2411  0.6490
  115OSM   H14T11956   1.728   3.844   5.321 -0.5898  1.5349 -2.1948
  115OSM   C15S11957   1.698   4.070   5.305  0.8901  0.1454  0.1166
  115OSM   H15S11958   1.804   4.082   5.335  0.6878  0.0300  0.8926
  115OSM   H15T11959   1.643   4.143   5.369 -2.8448 -0.0839 -2.5356
  115OSM   C16S11960   1.662   4.105   5.162 -0.1062 -0.5860 -0.3007
  115OSM   H16S11961   1.554   4.120   5.140 -0.0407  0.6361  0.1499
  115OSM   H16T11962   1.707   4.024   5.100  0.2393 -0.6464  0.0259
  115OSM   C17S11963   1.731   4.234   5.114  0.4709 -0.3521 -0.5895
  115OSM   H17S11964   1.840   4.230   5.130  0.1020  1.2679  3.3374
  115OSM   H17T11965   1.691   4.319   5.173  0.7880  0.0106 -0.8920
  115OSM   C18S11966   1.695   4.277   4.970 -1.0019  0.1622  0.9906
  115OSM   H18S11967   1.743   4.198   4.909  0.3222 -1.3312  3.7668
  115OSM   H18T11968   1.738   4.378   4.952  0.2474 -0.4172  0.6075
  115OSM   H18U11969   1.587   4.280   4.944 -0.8674 -0.1746  0.3804
  115OSM    C1F11970   1.736   3.981   6.644  0.3076  0.1903 -0.1248
  115OSM     OF11971   1.856   3.994   6.667 -0.8468 -0.1797 -0.0368
  115OSM    C2F11972   1.643   4.093   6.620 -0.9605  0.0705 -0.3345
  115OSM    H2F11973   1.645   4.171   6.699  2.0850  1.2353 -1.4057
  115OSM    H2G11974   1.536   4.061   6.618 -0.1808 -2.8546  0.2474
  115OSM    C3F11975   1.697   4.167   6.491 -0.3458 -0.5776 -0.5239
  115OSM    H3F11976   1.808   4.170   6.494 -0.2874 -1.8377 -0.8353
  115OSM    H3G11977   1.671   4.275   6.505  0.9048 -0.3573  0.2711
  115OSM    C4F11978   1.648   4.096   6.362 -0.4546  0.6542 -0.3507
  115OSM    H4F11979   1.537   4.089   6.365 -0.8427  4.4594 -1.4681
  115OSM    H4G11980   1.686   3.991   6.362  1.3132  1.2561  0.4111
  115OSM    C5F11981   1.709   4.164   6.238  0.5478 -0.2649  0.1432
  115OSM    H5F11982   1.670   4.114   6.147  1.1805 -0.9960  0.2579
  115OSM    H5G11983   1.819   4.179   6.249  0.5432  0.3663 -0.6029
  115OSM    C6F11984   1.667   4.311   6.214 -0.4786 -0.0418  0.0239
  115OSM    H6F11985   1.733   4.371   6.280 -2.7680  2.0650  0.5576
  115OSM    H6G11986   1.564   4.332   6.252 -0.2890  0.4857  0.2659
  115OSM    C7F11987   1.674   4.350   6.069 -0.1116 -0.3249  0.2108
  115OSM    H7F11988   1.776   4.330   6.030  0.6151  2.0229  0.7016
  115OSM    H7G11989   1.665   4.461   6.072  0.6600 -0.2590  0.4468
  115OSM    C8F11990   1.548   4.303   5.974 -0.7846  0.2240 -0.3929
  115OSM    H8F11991   1.523   4.393   5.915  0.1381  1.5275  1.1336
  115OSM    H8G11992   1.467   4.280   6.046  0.0287  0.4978  0.6338
  115OSM    C9F11993   1.582   4.182   5.890  0.0986  0.5878  0.6546
  115OSM    H9F11994   1.543   4.092   5.939  0.9567  0.9226  2.0018
  115OSM   C10F11995   1.643   4.187   5.771  0.2835  0.2800  0.2285
  115OSM   H10F11996   1.668   4.087   5.731 -0.8105 -0.7014  1.8382
  115OSM   C11F11997   1.694   4.307   5.711  0.4549 -0.0989 -0.0406
  115OSM   H11F11998   1.796   4.293   5.668 -0.8118  1.2230 -3.9424
  115OSM   H11G11999   1.709   4.390   5.783  1.0595 -2.0760  2.2358
  115OSM   C12F12000   1.593   4.336   5.594 -0.7373  0.0951  0.3854
  115OSM   H12F12001   1.504   4.372   5.648 -0.0564  1.6464  0.5314
  115OSM   H12G12002   1.579   4.243   5.535 -0.8785  0.7382 -0.6185
  115OSM   C13F12003   1.646   4.443   5.496 -0.2754 -0.0986  0.4551
  115OSM   H13F12004   1.727   4.392   5.439  0.5697 -0.7290  2.1769
  115OSM   H13G12005   1.691   4.520   5.561  0.7991 -1.4464  1.3672
  115OSM   C14F12006   1.543   4.517   5.405  0.8336 -0.4716 -0.3772
  115OSM   H14F12007   1.597   4.569   5.323  2.0069 -0.5879  0.2924
  115OSM   H14G12008   1.482   4.591   5.460  3.2663  2.7473 -1.6980
  115OSM   C15F12009   1.437   4.425   5.329 -0.4882 -0.2943 -0.1171
  115OSM   H15F12010   1.389   4.360   5.405 -1.9419  0.6080 -0.2060
  115OSM   H15G12011   1.477   4.351   5.257  1.1168  0.6074 -0.2070
  115OSM   C16F12012   1.329   4.515   5.257 -0.1125  0.3938  0.5131
  115OSM   H16F12013   1.303   4.603   5.319  1.8977  1.3915  0.0301
  115OSM   H16G12014   1.239   4.449   5.249  0.5465 -0.3624 -1.2426
  115OSM   C17F12015   1.366   4.545   5.112 -0.2263  0.1429  0.0179
  115OSM   H17F12016   1.343   4.451   5.056  0.3806 -0.4290  0.7112
  115OSM   H17G12017   1.476   4.559   5.113 -0.2586  0.4529  1.6497
  115OSM   C18F12018   1.297   4.671   5.066 -0.0820 -1.1354  0.7144
  115OSM   H18F12019   1.189   4.658   5.046 -0.1826  2.0948 -1.6446
  115OSM   H18G12020   1.342   4.691   4.966 -0.3135  0.0705  0.8387
  115OSM   H18H12021   1.299   4.763   5.127  0.0983 -1.5295  1.3108
  116OSM      N12022   3.935   1.424   7.447  0.3458  0.6175  0.4644
  116OSM    C1512023   3.862   1.457   7.573 -0.1995 -0.0261 -0.0782
  116OSM   H15A12024   3.849   1.367   7.631 -3.5404 -0.6752 -1.6193
  116OSM   H15B12025   3.758   1.482   7.557 -0.6141 -0.1847  2.0894
  116OSM   H15C12026   3.910   1.534   7.632 -1.4292  0.1638  0.7132
  116OSM    C1412027   3.949   1.551   7.360  0.9046 -0.0337 -0.5202
  116OSM   H14A12028   3.848   1.579   7.332  0.0917 -0.9355  1.3276
  116OSM   H14B12029   3.986   1.530   7.260 -2.1784  2.9274 -2.5287
  116OSM   H14C12030   4.010   1.628   7.404  0.5161  0.6558 -1.1554
  116OSM    C1312031   4.059   1.370   7.484 -0.2778 -0.1754 -0.4890
  116OSM   H13A12032   4.047   1.287   7.551  3.8806  0.0913  0.8756
  116OSM   H13B12033   4.124   1.441   7.532  1.4291 -1.4140 -0.8790
  116OSM   H13C12034   4.116   1.321   7.407  1.4008  2.2612 -0.9227
  116OSM    C1212035   3.859   1.319   7.359  0.4166  0.2062  0.0541
  116OSM   H12A12036   3.766   1.362   7.326  0.0528 -0.8019 -0.2924
  116OSM   H12B12037   3.826   1.236   7.421 -1.1995  0.3738 -0.5453
  116OSM    C1112038   3.928   1.252   7.236  0.0372 -0.3634 -0.5279
  116OSM   H11A12039   3.941   1.331   7.158 -0.0005  1.1576  0.9533
  116OSM   H11B12040   3.854   1.175   7.205 -1.7097 -0.2924  3.0568
  116OSM      P12041   4.103   1.064   7.228  0.3073 -0.3894  0.2390
  116OSM    O1312042   4.249   1.063   7.241  0.3426 -0.4517  1.2101
  116OSM    O1412043   4.010   0.962   7.284  0.0743 -0.8597  0.1921
  116OSM    O1112044   4.065   1.081   7.076 -0.4406  0.3131  0.2504
  116OSM    O1212045   4.047   1.199   7.280 -0.3719 -0.3280  0.2563
  116OSM    C1S12046   4.109   1.165   6.972 -0.2528  0.5649  0.0366
  116OSM    H1S12047   4.219   1.173   6.968 -0.0605 -1.6171 -2.9134
  116OSM    H1T12048   4.078   1.269   6.995  0.5983  0.9015 -0.2910
  116OSM     NF12049   4.154   1.188   6.742  0.1099  0.2137  0.3313
  116OSM    HNF12050   4.121   1.271   6.699 -0.0378  0.9015  1.7152
  116OSM    C2S12051   4.064   1.120   6.835 -0.0334 -0.7673 -0.2853
  116OSM    H2S12052   4.076   1.010   6.831 -0.6727 -0.8106 -1.3153
  116OSM    C3S12053   3.915   1.157   6.818  0.4409  0.3292  0.1171
  116OSM    H3S12054   3.909   1.267   6.836  1.4943  0.3204  0.5534
  116OSM     O312055   3.835   1.108   6.923 -0.3295  0.5865  0.0766
  116OSM    HO312056   3.896   1.075   6.990 -0.0595  1.6350  0.3711
  116OSM    C4S12057   3.861   1.130   6.682  0.0920  0.8681 -0.6477
  116OSM    H4S12058   3.920   1.180   6.603  1.3148 -1.1095 -1.0564
  116OSM    C5S12059   3.770   1.033   6.651 -0.3576 -0.3630 -0.1157
  116OSM    H5S12060   3.763   0.951   6.724  0.5151 -0.1346  0.2266
  116OSM    C6S12061   3.716   1.012   6.514 -0.3440 -0.4639  0.4147
  116OSM    H6S12062   3.615   0.968   6.527  0.1465 -1.8084 -0.1265
  116OSM    H6T12063   3.771   0.926   6.471 -0.3371 -0.1418 -0.2302
  116OSM    C7S12064   3.728   1.137   6.416  0.1349 -0.2104 -0.0512
  116OSM    H7S12065   3.837   1.159   6.408  0.2375 -0.1925  1.1875
  116OSM    H7T12066   3.678   1.222   6.467 -0.0398  0.5609 -1.4799
  116OSM    C8S12067   3.674   1.111   6.270 -0.1346  0.6733 -0.3066
  116OSM    H8S12068   3.674   1.195   6.199  1.0197  1.1870  0.2712
  116OSM    H8T12069   3.577   1.057   6.273  0.6385 -0.7529  1.8698
  116OSM    C9S12070   3.763   1.012   6.198  0.1826 -0.8942 -0.2388
  116OSM    H9S12071   3.769   0.916   6.254 -2.5062 -1.2505 -0.4096
  116OSM    H9T12072   3.865   1.050   6.177  0.1694 -0.4967  0.4055
  116OSM   C10S12073   3.682   0.961   6.076  0.5052 -0.0466  0.5293
  116OSM   H10S12074   3.575   0.969   6.107  0.0839  2.6095 -1.2708
  116OSM   H10T12075   3.708   0.855   6.055  0.8392  0.3327 -1.1015
  116OSM   C11S12076   3.701   1.050   5.947  0.2801  0.4417 -0.1712
  116OSM   H11S12077   3.693   1.159   5.967  2.0552  0.5039  0.3295
  116OSM   H11T12078   3.609   1.034   5.887  0.2343 -0.6114  0.1514
  116OSM   C12S12079   3.822   1.016   5.866 -0.0583  0.6536 -0.0648
  116OSM   H12S12080   3.815   0.908   5.845  2.6711  0.2936  0.4700
  116OSM   H12T12081   3.912   1.027   5.930 -0.5566  0.1414  0.7458
  116OSM   C13S12082   3.838   1.091   5.733  0.4141 -0.2495 -0.8719
  116OSM   H13S12083   3.917   1.039   5.673 -0.5572 -1.2298 -1.3362
  116OSM   H13T12084   3.866   1.194   5.764  0.8365 -0.5534 -0.2101
  116OSM   C14S12085   3.717   1.081   5.640 -0.3372 -0.0431 -0.0913
  116OSM   H14S12086   3.629   1.136   5.680 -0.4866 -0.7525  0.5706
  116OSM   H14T12087   3.696   0.972   5.639 -1.5666  0.1763  0.2521
  116OSM   C15S12088   3.754   1.133   5.500  0.6391 -0.4361 -0.0523
  116OSM   H15S12089   3.676   1.100   5.428  0.5309 -2.6610  0.9978
  116OSM   H15T12090   3.842   1.079   5.460  0.1583 -1.0211 -0.3308
  116OSM   C16S12091   3.757   1.286   5.483 -0.6621  0.8152 -0.1975
  116OSM   H16S12092   3.703   1.339   5.564 -2.4772 -2.5409  0.9877
  116OSM   H16T12093   3.690   1.322   5.402 -0.6798  1.6284  0.1621
  116OSM   C17S12094   3.903   1.342   5.462 -0.4065 -0.0743  0.0226
  116OSM   H17S12095   3.944   1.323   5.564 -1.3011 -1.2153  0.1938
  116OSM   H17T12096   3.901   1.451   5.443 -1.0003  0.1360  1.1657
  116OSM   C18S12097   3.998   1.279   5.360  0.1642 -0.3757  0.3942
  116OSM   H18S12098   4.096   1.325   5.383 -0.2383 -0.2478  1.9864
  116OSM   H18T12099   3.967   1.287   5.254  0.1591  1.5396  0.5220
  116OSM   H18U12100   4.009   1.169   5.377 -1.0210 -0.8855 -1.8123
  116OSM    C1F12101   4.275   1.145   6.719 -0.6858 -0.5461 -0.0062
  116OSM     OF12102   4.310   1.042   6.775  0.2111 -0.6224  0.1526
  116OSM    C2F12103   4.370   1.223   6.619  0.3438  0.0185  0.6096
  116OSM    H2F12104   4.459   1.254   6.678  1.8864 -0.6443 -1.2570
  116OSM    H2G12105   4.321   1.316   6.583 -0.1022  0.1363  1.4986
  116OSM    C3F12106   4.399   1.132   6.500  1.2583 -0.9071  0.4570
  116OSM    H3F12107   4.409   1.029   6.539 -3.2672 -1.6747  0.1574
  116OSM    H3G12108   4.497   1.152   6.451 -0.1334  0.2782 -2.0507
  116OSM    C4F12109   4.284   1.124   6.392  0.9657 -0.1025 -0.6907
  116OSM    H4F12110   4.262   1.219   6.337 -0.7610 -1.5533 -2.6644
  116OSM    H4G12111   4.191   1.105   6.450  1.0443  1.3637 -0.0309
  116OSM    C5F12112   4.300   1.011   6.290 -0.1287 -0.1835 -0.6316
  116OSM    H5F12113   4.325   0.923   6.354  0.7563  1.1033  0.8362
  116OSM    H5G12114   4.383   1.035   6.220  0.6383 -0.9474 -0.0216
  116OSM    C6F12115   4.179   0.977   6.205  0.7562  0.1362 -0.0894
  116OSM    H6F12116   4.152   1.061   6.139 -1.2646 -0.3672  0.0271
  116OSM    H6G12117   4.102   0.969   6.285  1.7199  0.7740  0.9349
  116OSM    C7F12118   4.179   0.842   6.132 -0.2501 -0.2804  0.1434
  116OSM    H7F12119   4.077   0.839   6.088 -0.5419  3.1765  0.2791
  116OSM    H7G12120   4.190   0.764   6.210  1.8656  0.4114  0.5815
  116OSM    C8F12121   4.296   0.829   6.035  0.2599 -0.4147  0.6320
  116OSM    H8F12122   4.378   0.787   6.097  1.9679  1.5746 -0.1362
  116OSM    H8G12123   4.324   0.935   6.015 -0.8261 -0.0585  0.9618
  116OSM    C9F12124   4.287   0.736   5.916  0.7598 -0.3415  0.4597
  116OSM    H9F12125   4.329   0.636   5.935 -0.0729 -0.4183  2.0460
  116OSM   C10F12126   4.236   0.762   5.792 -0.2356  0.0815 -0.3513
  116OSM   H10F12127   4.237   0.682   5.717  0.1883  0.3488 -0.6366
  116OSM   C11F12128   4.170   0.885   5.738 -0.2255  0.3293  0.0515
  116OSM   H11F12129   4.228   0.972   5.776 -2.1256  1.3830  0.6482
  116OSM   H11G12130   4.069   0.876   5.783  0.3571 -0.6340  1.2062
  116OSM   C12F12131   4.180   0.900   5.580  0.7295 -0.9142  0.2060
  116OSM   H12F12132   4.138   0.999   5.552 -0.5533 -1.4376  0.1753
  116OSM   H12G12133   4.122   0.820   5.528 -0.6261  2.1164 -3.3457
  116OSM   C13F12134   4.327   0.900   5.534  0.6074 -0.6076  1.0024
  116OSM   H13F12135   4.366   0.798   5.556  3.7518 -0.0779 -1.3613
  116OSM   H13G12136   4.381   0.981   5.588 -0.5616  2.0660 -1.5670
  116OSM   C14F12137   4.345   0.919   5.386  0.3715 -0.1661  0.0462
  116OSM   H14F12138   4.266   0.865   5.328  0.5337  0.8556 -1.1864
  116OSM   H14G12139   4.441   0.872   5.357  0.2870  0.1641 -0.8266
  116OSM   C15F12140   4.352   1.070   5.350 -0.0100  0.2031  0.2707
  116OSM   H15F12141   4.408   1.132   5.423  0.0855  0.8912 -0.3633
  116OSM   H15G12142   4.250   1.111   5.365 -0.1407 -0.5680  1.5764
  116OSM   C16F12143   4.394   1.096   5.209 -0.8035  0.4557 -0.0983
  116OSM   H16F12144   4.352   1.198   5.194 -0.8662  0.9918  2.9879
  116OSM   H16G12145   4.359   1.018   5.139 -0.3907 -1.8432  2.1103
  116OSM   C17F12146   4.545   1.119   5.201 -1.3512 -0.7466 -0.2730
  116OSM   H17F12147   4.594   1.024   5.231  2.4125  0.3259 -2.3291
  116OSM   H17G12148   4.568   1.204   5.268  0.3585 -1.3772 -0.0139
  116OSM   C18F12149   4.616   1.147   5.066  0.4809  0.0748 -0.3708
  116OSM   H18F12150   4.594   1.065   4.994 -0.0419 -0.3038  0.2068
  116OSM   H18G12151   4.726   1.151   5.083  0.4167  0.6604 -0.1008
  116OSM   H18H12152   4.582   1.243   5.023  1.0655 -0.2487 -1.6199
  117OSM      N12153   3.114   5.083   7.384  0.4790 -0.3884 -0.2155
  117OSM    C1512154   3.010   5.164   7.323  0.1381 -0.1349  0.4117
  117OSM   H15A12155   3.027   5.264   7.359  2.8242  0.2799 -1.6979
  117OSM   H15B12156   2.910   5.128   7.340  0.6565 -1.5686  0.5735
  117OSM   H15C12157   3.025   5.170   7.217 -0.1685 -2.0599  0.2261
  117OSM    C1412158   3.238   5.161   7.357 -0.4175  0.1193 -0.1267
  117OSM   H14A12159   3.225   5.262   7.393 -1.8530 -0.2518  0.4423
  117OSM   H14B12160   3.271   5.165   7.254  0.0695  1.0432  0.0491
  117OSM   H14C12161   3.323   5.119   7.409  0.2538 -1.1312 -2.1154
  117OSM    C1312162   3.099   5.071   7.535  0.3080 -0.3796 -0.0067
  117OSM   H13A12163   3.085   5.163   7.590  0.2363 -1.1716  1.3348
  117OSM   H13B12164   3.176   5.018   7.588  1.8304  1.1227 -0.6186
  117OSM   H13C12165   3.012   5.014   7.562  0.3356  1.1534  4.0343
  117OSM    C1212166   3.115   4.952   7.309 -0.2333  0.0875  0.3150
  117OSM   H12A12167   3.211   4.907   7.329  0.6935  1.5521 -0.5956
  117OSM   H12B12168   3.113   4.976   7.203  1.1722  1.6860  0.5977
  117OSM    C1112169   2.998   4.855   7.338  0.1216  0.2370 -1.0920
  117OSM   H11A12170   2.990   4.833   7.447 -0.4977 -0.0305 -1.1834
  117OSM   H11B12171   3.017   4.757   7.289 -0.2374 -0.0233 -0.7183
  117OSM      P12172   2.743   4.824   7.282  0.3100 -0.0205 -0.2193
  117OSM    O1312173   2.736   4.721   7.390  0.5180  0.2306  0.2167
  117OSM    O1412174   2.626   4.916   7.268  0.7891 -0.5201 -0.5349
  117OSM    O1112175   2.777   4.756   7.142  0.1778 -0.0796  0.2715
  117OSM    O1212176   2.877   4.911   7.281 -0.2777 -0.1386  0.5888
  117OSM    C1S12177   2.827   4.851   7.041 -0.2077  0.1384 -0.4061
  117OSM    H1S12178   2.936   4.872   7.045 -0.3874  1.1680 -0.4562
  117OSM    H1T12179   2.769   4.946   7.045 -0.8898 -0.1928 -1.7574
  117OSM     NF12180   2.860   4.894   6.797  0.0240 -0.1157  0.4987
  117OSM    HNF12181   2.786   4.938   6.747 -0.6807 -1.9572 -0.1653
  117OSM    C2S12182   2.798   4.803   6.900 -0.4754 -0.6858  0.7875
  117OSM    H2S12183   2.848   4.705   6.907  0.0989 -0.2805  3.7087
  117OSM    C3S12184   2.644   4.775   6.874  0.6830  0.1962 -0.2192
  117OSM    H3S12185   2.596   4.875   6.869  1.9933  0.9146  0.7935
  117OSM     O312186   2.573   4.705   6.984  0.2174 -0.3833  0.8721
  117OSM    HO312187   2.635   4.713   7.056  1.7759 -1.5831 -0.2413
  117OSM    C4S12188   2.630   4.694   6.742  0.1320  0.3529 -0.1478
  117OSM    H4S12189   2.625   4.757   6.652 -0.6838  1.7760  0.8549
  117OSM    C5S12190   2.612   4.562   6.728 -0.4469  0.6863  0.5534
  117OSM    H5S12191   2.613   4.496   6.816  1.2935  0.6629  0.5449
  117OSM    C6S12192   2.592   4.488   6.603 -0.5080  0.3018  0.0556
  117OSM    H6S12193   2.520   4.405   6.621  0.0388 -0.1236  0.2926
  117OSM    H6T12194   2.687   4.441   6.571  0.3784  2.3717 -0.4818
  117OSM    C7S12195   2.550   4.555   6.471  0.1793 -0.6867 -0.5244
  117OSM    H7S12196   2.603   4.647   6.439 -0.1464 -0.8740 -1.6307
  117OSM    H7T12197   2.449   4.588   6.505  0.6518  0.4140 -0.1355
  117OSM    C8S12198   2.545   4.462   6.359 -0.6252 -0.2693 -0.2685
  117OSM    H8S12199   2.469   4.383   6.375  1.5023 -2.0321  1.8416
  117OSM    H8T12200   2.640   4.404   6.359 -0.8179 -0.5839 -0.1777
  117OSM    C9S12201   2.522   4.548   6.226  0.5931 -0.0375 -0.1474
  117OSM    H9S12202   2.598   4.628   6.222 -0.2798  0.9430  1.5780
  117OSM    H9T12203   2.422   4.596   6.236  0.8835  0.7364 -0.8403
  117OSM   C10S12204   2.528   4.452   6.106  0.3621 -0.0337  0.1594
  117OSM   H10S12205   2.463   4.362   6.118  1.4811 -0.7435  1.1231
  117OSM   H10T12206   2.632   4.415   6.097  0.2654 -0.1909 -0.3523
  117OSM   C11S12207   2.506   4.513   5.967  0.1706 -0.6266  0.0266
  117OSM   H11S12208   2.576   4.597   5.946  0.5448 -1.6903 -3.5639
  117OSM   H11T12209   2.407   4.564   5.961  0.8225  0.5963 -0.5889
  117OSM   C12S12210   2.515   4.413   5.843  0.6615 -0.5218  0.3902
  117OSM   H12S12211   2.428   4.344   5.854  0.4929 -0.3746 -0.0185
  117OSM   H12T12212   2.612   4.358   5.851  1.3963  0.4270 -1.4450
  117OSM   C13S12213   2.516   4.493   5.709 -0.2661  0.9083 -0.3827
  117OSM   H13S12214   2.600   4.565   5.717 -0.3998  0.8851  1.9395
  117OSM   H13T12215   2.419   4.545   5.696 -0.1185  1.3694  0.2947
  117OSM   C14S12216   2.536   4.405   5.588 -0.8497  0.0499 -0.1675
  117OSM   H14S12217   2.469   4.316   5.592 -2.3698  1.0351 -2.1792
  117OSM   H14T12218   2.645   4.382   5.581 -0.3149  2.5474 -0.8671
  117OSM   C15S12219   2.511   4.478   5.454  0.6538  0.3405 -1.3254
  117OSM   H15S12220   2.571   4.571   5.449 -3.0252  2.9039 -1.9109
  117OSM   H15T12221   2.406   4.514   5.444 -0.2290 -1.4754  0.4336
  117OSM   C16S12222   2.531   4.380   5.339 -0.2926  0.0377  0.8392
  117OSM   H16S12223   2.444   4.310   5.338 -3.3074  3.4651  0.6204
  117OSM   H16T12224   2.621   4.324   5.372  0.3102 -0.4579 -1.4744
  117OSM   C17S12225   2.552   4.454   5.210 -0.0738 -0.0402  0.0742
  117OSM   H17S12226   2.620   4.542   5.216  0.9293 -0.3391 -4.1095
  117OSM   H17T12227   2.462   4.503   5.167  1.5673  3.5346  0.3814
  117OSM   C18S12228   2.603   4.367   5.097  0.2383 -0.0346 -0.3382
  117OSM   H18S12229   2.650   4.277   5.143 -0.1053  0.8613  1.9257
  117OSM   H18T12230   2.679   4.399   5.023  0.5636 -1.8116 -0.8097
  117OSM   H18U12231   2.512   4.334   5.043 -1.6094  2.8268  0.7816
  117OSM    C1F12232   2.989   4.892   6.765  1.4011 -0.7197 -1.0321
  117OSM     OF12233   3.052   4.792   6.794 -0.0168  0.3560 -0.4503
  117OSM    C2F12234   3.060   5.012   6.708  0.0720 -0.6770  0.3026
  117OSM    H2F12235   3.161   5.023   6.754  1.5002 -0.3678 -2.6118
  117OSM    H2G12236   2.993   5.097   6.732  1.3080  0.4451 -0.0516
  117OSM    C3F12237   3.086   5.003   6.553  0.5058  0.4798 -0.1351
  117OSM    H3F12238   3.148   4.911   6.544  0.1747  0.4150 -2.1509
  117OSM    H3G12239   3.151   5.086   6.518  0.9363  1.1887  2.1449
  117OSM    C4F12240   2.958   4.993   6.461 -0.7193 -0.3666  0.8659
  117OSM    H4F12241   2.887   5.068   6.503 -1.3867 -0.0927 -0.6681
  117OSM    H4G12242   2.921   4.889   6.448 -1.4547  0.2380 -3.6278
  117OSM    C5F12243   2.987   5.061   6.317 -0.1459 -0.5364 -0.6210
  117OSM    H5F12244   3.077   5.006   6.281  0.2322 -1.2811  1.3132
  117OSM    H5G12245   3.017   5.166   6.337 -0.0462 -0.6636 -0.0618
  117OSM    C6F12246   2.873   5.067   6.225  0.3200  0.4645  0.1350
  117OSM    H6F12247   2.897   5.131   6.138 -1.2275 -0.3816 -0.9669
  117OSM    H6G12248   2.791   5.114   6.283 -0.8983 -1.0994 -0.2462
  117OSM    C7F12249   2.815   4.939   6.179 -0.1811  0.8549  0.4564
  117OSM    H7F12250   2.780   4.867   6.256 -4.4951  2.7169  0.4938
  117OSM    H7G12251   2.899   4.890   6.125  0.6952  1.2723  1.4104
  117OSM    C8F12252   2.695   4.949   6.083  0.2689 -0.5337 -0.3830
  117OSM    H8F12253   2.621   5.013   6.137  0.3264  0.6606 -1.6494
  117OSM    H8G12254   2.650   4.850   6.064 -0.8315 -0.4455  1.4907
  117OSM    C9F12255   2.731   5.032   5.964 -0.5694 -0.1060 -0.6977
  117OSM    H9F12256   2.748   5.138   5.985 -1.6840 -0.6937  4.5776
  117OSM   C10F12257   2.757   4.978   5.845  0.1506  0.0671  0.2597
  117OSM   H10F12258   2.782   5.048   5.764 -0.8108  2.0425  1.5990
  117OSM   C11F12259   2.758   4.833   5.811 -0.5114 -0.0651 -0.4494
  117OSM   H11F12260   2.654   4.797   5.818 -0.4488  0.0422  1.3627
  117OSM   H11G12261   2.807   4.774   5.892 -0.5383 -1.2560 -1.2754
  117OSM   C12F12262   2.823   4.798   5.681  0.2191  0.2099 -0.4559
  117OSM   H12F12263   2.817   4.688   5.673 -0.0895 -0.3184  4.2870
  117OSM   H12G12264   2.924   4.846   5.676  1.3339 -1.8322  0.9879
  117OSM   C13F12265   2.740   4.865   5.572  0.5221 -0.2524  0.9093
  117OSM   H13F12266   2.729   4.976   5.579  3.2172  0.1124  0.4073
  117OSM   H13G12267   2.634   4.830   5.573 -0.6158  2.6507 -1.4824
  117OSM   C14F12268   2.795   4.829   5.425  0.2711 -0.9134 -0.2843
  117OSM   H14F12269   2.769   4.723   5.406 -0.0479 -1.3100  2.0893
  117OSM   H14G12270   2.906   4.838   5.433  0.3886 -2.3709 -0.0341
  117OSM   C15F12271   2.743   4.928   5.319 -0.7287 -0.4294 -0.2010
  117OSM   H15F12272   2.768   5.034   5.340  0.7058 -0.5370 -1.2178
  117OSM   H15G12273   2.634   4.912   5.332 -0.4003 -2.4290  0.5063
  117OSM   C16F12274   2.787   4.893   5.177 -0.6142  0.0421 -0.2372
  117OSM   H16F12275   2.724   4.932   5.094  0.9204 -1.9926 -2.5137
  117OSM   H16G12276   2.781   4.788   5.143  0.0365 -0.3938  0.9586
  117OSM   C17F12277   2.934   4.953   5.144 -0.2401 -0.8467  0.4530
  117OSM   H17F12278   2.972   4.888   5.063  1.6328  0.6975  0.0229
  117OSM   H17G12279   2.993   4.947   5.238 -2.3114  1.1145  1.9989
  117OSM   C18F12280   2.917   5.096   5.081  1.0521  1.0838  0.1598
  117OSM   H18F12281   2.853   5.164   5.142  1.7303  1.5184  0.4064
  117OSM   H18G12282   2.875   5.086   4.979  0.7584 -1.5813  0.4920
  117OSM   H18H12283   3.017   5.142   5.062  0.1612  2.6713 -0.9388
  118OSM      N12284   3.205   3.085   7.559 -0.0111 -0.0145  0.1171
  118OSM    C1512285   3.079   3.008   7.597 -0.5804 -0.2414  0.0591
  118OSM   H15A12286   3.082   2.911   7.550 -0.8154  0.1768 -0.8594
  118OSM   H15B12287   2.994   3.069   7.569  0.2537  1.5800  1.3137
  118OSM   H15C12288   3.078   2.990   7.703 -1.7621  0.5164  0.1938
  118OSM    C1412289   3.214   3.221   7.625 -0.2262 -0.1674 -0.1003
  118OSM   H14A12290   3.124   3.274   7.598  0.3124  1.5265  1.2956
  118OSM   H14B12291   3.303   3.264   7.583  0.5769 -0.5240  1.1942
  118OSM   H14C12292   3.225   3.220   7.732 -0.4039 -2.0893 -0.0609
  118OSM    C1312293   3.320   3.011   7.628  0.6373  0.0358  0.3368
  118OSM   H13A12294   3.318   2.906   7.604 -0.3663 -0.1858  1.3132
  118OSM   H13B12295   3.321   3.016   7.736  1.3539  2.0351  0.2839
  118OSM   H13C12296   3.412   3.059   7.597 -0.9495  4.0190  1.2237
  118OSM    C1212297   3.223   3.110   7.407 -0.0929  0.5257 -0.1875
  118OSM   H12A12298   3.231   3.011   7.364  0.7725  0.4193  0.2086
  118OSM   H12B12299   3.321   3.154   7.401  0.4749 -0.8069 -1.2329
  118OSM    C1112300   3.108   3.181   7.322 -0.1815  0.2397 -0.4138
  118OSM   H11A12301   3.145   3.188   7.217 -1.0723  0.4568 -0.7208
  118OSM   H11B12302   3.101   3.286   7.357 -2.0661 -0.4606  1.5032
  118OSM      P12303   2.955   3.001   7.235  0.2429 -0.3341  0.1564
  118OSM    O1312304   3.052   2.891   7.249 -0.0021 -0.1069  0.2939
  118OSM    O1412305   2.813   2.962   7.239  0.5500 -0.2006 -0.3493
  118OSM    O1112306   2.984   3.077   7.095 -0.8245  0.1559 -0.1337
  118OSM    O1212307   2.975   3.125   7.331 -0.5455  0.0317  0.2937
  118OSM    C1S12308   2.955   3.011   6.968  0.2209  0.1485  0.5199
  118OSM    H1S12309   2.848   2.996   6.943  0.8240 -0.0833 -2.2702
  118OSM    H1T12310   3.009   2.916   6.947 -0.5020  0.1913 -1.8089
  118OSM     NF12311   2.970   3.052   6.724  0.6598  0.1798  0.6286
  118OSM    HNF12312   3.038   2.998   6.676 -1.6510 -2.5003  0.1014
  118OSM    C2S12313   3.014   3.097   6.853 -0.0410  0.0731 -0.7649
  118OSM    H2S12314   2.967   3.196   6.865  0.8513  0.8222 -2.9597
  118OSM    C3S12315   3.162   3.122   6.871  0.5294 -0.3393  0.2160
  118OSM    H3S12316   3.227   3.032   6.868  2.5639  0.9630  2.1260
  118OSM     O312317   3.207   3.189   6.986  0.1314 -0.7147  0.0552
  118OSM    HO312318   3.134   3.183   7.047  0.6548 -1.1008  0.6625
  118OSM    C4S12319   3.220   3.187   6.746 -0.4593 -0.6982 -0.1280
  118OSM    H4S12320   3.267   3.120   6.672 -1.2222  0.8401 -2.1052
  118OSM    C5S12321   3.249   3.321   6.727  0.1789 -0.7014 -0.4962
  118OSM    H5S12322   3.223   3.391   6.808 -0.0098  0.6843 -1.7048
  118OSM    C6S12323   3.329   3.384   6.619  0.1280  0.4663 -0.0781
  118OSM    H6S12324   3.431   3.403   6.658 -1.2164  4.3522  2.1332
  118OSM    H6T12325   3.280   3.480   6.593  0.1838  0.2345 -1.0817
  118OSM    C7S12326   3.348   3.308   6.486  0.1738  0.0669 -0.5161
  118OSM    H7S12327   3.249   3.282   6.442  0.0729 -0.0771 -0.2099
  118OSM    H7T12328   3.395   3.208   6.496  1.0518  0.6086  1.0954
  118OSM    C8S12329   3.421   3.386   6.378 -0.7404  0.1574  0.1749
  118OSM    H8S12330   3.520   3.336   6.369  0.6215  2.7343 -0.1120
  118OSM    H8T12331   3.440   3.493   6.400  1.4078  0.0655 -0.9447
  118OSM    C9S12332   3.351   3.380   6.247 -0.2459  0.5672  0.5435
  118OSM    H9S12333   3.278   3.463   6.239  1.5403  2.3804  1.9595
  118OSM    H9T12334   3.293   3.286   6.231 -1.7309  1.5583 -0.0889
  118OSM   C10S12335   3.445   3.374   6.122  0.0075 -0.0221  0.5248
  118OSM   H10S12336   3.486   3.271   6.116  0.7916  0.2262  1.3767
  118OSM   H10T12337   3.524   3.450   6.136  0.3153  0.1608 -1.8677
  118OSM   C11S12338   3.375   3.412   5.987  0.4332  0.0347  0.1156
  118OSM   H11S12339   3.316   3.502   6.012 -2.1762 -2.1326  2.4857
  118OSM   H11T12340   3.296   3.336   5.967 -0.5503  1.1735 -0.4146
  118OSM   C12S12341   3.464   3.416   5.860  0.2763  0.0253  0.4090
  118OSM   H12S12342   3.523   3.322   5.850  0.9694  0.6055 -1.5861
  118OSM   H12T12343   3.536   3.500   5.868 -0.9508  1.0604  1.0410
  118OSM   C13S12344   3.380   3.447   5.731  0.2232 -0.5183  0.3153
  118OSM   H13S12345   3.318   3.538   5.745 -1.6496 -1.8008  0.7073
  118OSM   H13T12346   3.313   3.361   5.710 -1.2310  0.9782 -1.5230
  118OSM   C14S12347   3.476   3.461   5.616 -1.2568  0.2510  0.6854
  118OSM   H14S12348   3.548   3.376   5.620 -1.1423 -0.1141 -3.7437
  118OSM   H14T12349   3.529   3.559   5.614 -0.1338 -0.3397 -0.2091
  118OSM   C15S12350   3.415   3.435   5.478  0.0352 -0.8339 -0.4171
  118OSM   H15S12351   3.367   3.530   5.446 -0.7157 -0.3695  1.9190
  118OSM   H15T12352   3.336   3.357   5.482 -1.0331  0.2566  0.8022
  118OSM   C16S12353   3.536   3.394   5.387  0.4850 -0.2689 -0.9003
  118OSM   H16S12354   3.613   3.339   5.446 -0.3482 -1.4879 -0.8941
  118OSM   H16T12355   3.594   3.484   5.357  0.9275 -0.1814  0.1522
  118OSM   C17S12356   3.498   3.323   5.262 -0.3192 -0.2539  0.7558
  118OSM   H17S12357   3.457   3.221   5.281 -1.1639  0.1269  1.0373
  118OSM   H17T12358   3.587   3.311   5.197 -1.8380 -1.1970 -1.2781
  118OSM   C18S12359   3.400   3.397   5.172 -0.3149  0.4259 -0.1125
  118OSM   H18S12360   3.453   3.479   5.120 -1.1087  0.8433 -0.2897
  118OSM   H18T12361   3.305   3.428   5.222 -1.6742 -2.4776 -0.6551
  118OSM   H18U12362   3.372   3.323   5.094  0.2312  0.1226 -0.0211
  118OSM    C1F12363   2.842   3.073   6.678  0.6608  0.2059 -0.0151
  118OSM     OF12364   2.761   3.136   6.746 -0.0264  0.1132 -0.5112
  118OSM    C2F12365   2.816   2.991   6.550  0.0238 -0.3172  0.0058
  118OSM    H2F12366   2.705   2.979   6.545  0.2581 -2.7309 -0.3873
  118OSM    H2G12367   2.861   2.891   6.567 -1.4777 -0.9989  0.1378
  118OSM    C3F12368   2.877   3.063   6.430  0.5396  0.3937  0.4934
  118OSM    H3F12369   2.985   3.080   6.448  0.9867 -0.9840 -0.7387
  118OSM    H3G12370   2.835   3.165   6.421 -0.5668  0.0508  1.4910
  118OSM    C4F12371   2.854   2.982   6.298 -0.2197  0.6877  0.0496
  118OSM    H4F12372   2.751   2.944   6.309  0.2751 -0.5518  0.6832
  118OSM    H4G12373   2.916   2.890   6.286 -0.8197  0.1822  0.7853
  118OSM    C5F12374   2.866   3.071   6.176  0.1772  0.2665 -0.2240
  118OSM    H5F12375   2.971   3.091   6.143 -0.4932  2.0116 -1.4358
  118OSM    H5G12376   2.821   3.167   6.208  0.1590 -0.1413  1.0298
  118OSM    C6F12377   2.793   3.013   6.048  0.7441 -0.3175 -0.3801
  118OSM    H6F12378   2.691   3.004   6.093  1.0990 -1.1217  0.2712
  118OSM    H6G12379   2.830   2.910   6.032  2.5164  0.3972 -1.1538
  118OSM    C7F12380   2.801   3.109   5.926  0.1618 -0.1823  0.6197
  118OSM    H7F12381   2.905   3.125   5.891 -0.5385  1.7743 -0.7558
  118OSM    H7G12382   2.766   3.207   5.964 -0.9335 -0.2203 -0.2253
  118OSM    C8F12383   2.715   3.064   5.801 -0.0704 -0.0627  0.3894
  118OSM    H8F12384   2.682   3.154   5.745 -2.0401 -0.4918  0.7883
  118OSM    H8G12385   2.617   3.022   5.831  0.1199 -1.0840 -0.3510
  118OSM    C9F12386   2.786   2.972   5.706 -0.1454  1.1741  0.2175
  118OSM    H9F12387   2.828   2.880   5.751 -0.0747  0.0884 -1.9749
  118OSM   C10F12388   2.828   2.994   5.582 -0.4281  0.5075  0.0094
  118OSM   H10F12389   2.898   2.920   5.539  1.8872  1.1147  2.4336
  118OSM   C11F12390   2.788   3.102   5.492 -0.1151  0.0312  0.4454
  118OSM   H11F12391   2.880   3.144   5.447  0.6160 -1.6197  0.3023
  118OSM   H11G12392   2.730   3.181   5.544 -3.0226 -1.2668 -0.6190
  118OSM   C12F12393   2.690   3.055   5.383 -0.0763 -0.8362  0.6107
  118OSM   H12F12394   2.585   3.056   5.419 -0.5046 -1.1825 -0.5700
  118OSM   H12G12395   2.717   2.956   5.340 -0.4437 -1.3281  1.4795
  118OSM   C13F12396   2.691   3.150   5.261  0.8888 -0.0039 -0.8299
  118OSM   H13F12397   2.799   3.158   5.234  0.9097  1.9676 -0.3477
  118OSM   H13G12398   2.657   3.252   5.290 -3.7384 -0.9358 -2.2380
  118OSM   C14F12399   2.609   3.110   5.138 -0.0220  0.4812 -0.2678
  118OSM   H14F12400   2.500   3.109   5.162 -0.6990 -2.9416 -2.7411
  118OSM   H14G12401   2.637   3.007   5.108 -1.1800 -0.3038  1.2040
  118OSM   C15F12402   2.628   3.221   5.027 -0.0913 -1.1494 -0.5502
  118OSM   H15F12403   2.738   3.226   5.011  0.2146 -0.2642  1.5581
  118OSM   H15G12404   2.581   3.315   5.061  0.4184 -1.2293  0.3936
  118OSM   C16F12405   2.554   3.172   4.906 -0.3206 -0.7180 -0.1143
  118OSM   H16F12406   2.447   3.187   4.934 -0.4589  1.2090 -1.4197
  118OSM   H16G12407   2.577   3.064   4.908  2.5764 -0.1823 -0.7366
  118OSM   C17F12408   2.603   3.244   4.781  0.6474  0.1693  0.8041
  118OSM   H17F12409   2.713   3.233   4.789  0.4705 -1.6842  1.0851
  118OSM   H17G12410   2.579   3.353   4.786  2.2804  0.6188 -0.3274
  118OSM   C18F12411   2.545   3.177   4.655 -0.0523 -0.3145  0.2969
  118OSM   H18F12412   2.435   3.188   4.663 -0.1564 -2.0944  1.8615
  118OSM   H18G12413   2.573   3.070   4.661 -0.3542 -0.3731  0.6308
  118OSM   H18H12414   2.591   3.225   4.566  2.0593 -1.4857  0.6853
  119OSM      N12415   6.293   0.621   6.834  0.6906 -0.0636  0.4603
  119OSM    C1512416   6.211   0.540   6.930 -0.5783  0.1504  0.0904
  119OSM   H15A12417   6.281   0.484   6.991 -1.4575 -1.3901 -0.2574
  119OSM   H15B12418   6.139   0.477   6.880 -1.3889  1.8420 -0.9757
  119OSM   H15C12419   6.158   0.607   6.995  0.6081  0.8404  0.3790
  119OSM    C1412420   6.389   0.706   6.907 -0.2100  0.0704  0.8053
  119OSM   H14A12421   6.487   0.661   6.913  0.9187  2.2769 -0.0102
  119OSM   H14B12422   6.353   0.723   7.008  1.6282 -0.7467  1.6568
  119OSM   H14C12423   6.407   0.800   6.858  2.5386  0.0694  1.6171
  119OSM    C1312424   6.370   0.531   6.746 -0.5585  0.9422  0.1584
  119OSM   H13A12425   6.433   0.576   6.671  1.5071 -2.8376 -0.6701
  119OSM   H13B12426   6.300   0.468   6.693  1.3305 -0.8440 -0.3518
  119OSM   H13C12427   6.433   0.465   6.804  0.7794 -0.0041 -2.2467
  119OSM    C1212428   6.192   0.710   6.754 -1.1940 -0.0598  0.7016
  119OSM   H12A12429   6.116   0.647   6.710  0.1302  0.3005 -2.3548
  119OSM   H12B12430   6.251   0.757   6.677 -1.4543  0.7381  0.9782
  119OSM    C1112431   6.104   0.824   6.828 -0.1768  0.4830  0.2614
  119OSM   H11A12432   6.049   0.872   6.745  1.5118  1.7726 -0.1658
  119OSM   H11B12433   6.182   0.894   6.866  1.6165 -2.4962  2.5641
  119OSM      P12434   5.905   0.675   6.896 -0.0594  0.3020  0.0705
  119OSM    O1312435   5.931   0.543   6.963  0.0896  0.2779 -0.3839
  119OSM    O1412436   5.774   0.744   6.928 -0.9231 -0.2754 -0.2295
  119OSM    O1112437   5.920   0.655   6.738  0.0437 -0.1896 -0.0153
  119OSM    O1212438   6.023   0.780   6.937  0.0479  0.6358 -0.1115
  119OSM    C1S12439   5.819   0.704   6.651 -0.1150 -0.3519  0.4342
  119OSM    H1S12440   5.839   0.809   6.622 -3.3251 -0.0188 -1.0594
  119OSM    H1T12441   5.717   0.683   6.691 -0.5166  2.1112  0.8181
  119OSM     NF12442   5.733   0.693   6.421  0.1926  0.3340  0.1577
  119OSM    HNF12443   5.642   0.655   6.408  1.1723 -1.0288 -4.0661
  119OSM    C2S12444   5.823   0.620   6.517 -0.6082 -1.1967 -0.6234
  119OSM    H2S12445   5.927   0.627   6.480 -0.8051 -1.8094 -1.3274
  119OSM    C3S12446   5.807   0.465   6.529  0.2988  0.0318  0.1747
  119OSM    H3S12447   5.708   0.433   6.567 -0.4098 -0.6143 -2.0466
  119OSM     O312448   5.908   0.411   6.611  0.0303 -0.5823  0.1814
  119OSM    HO312449   5.935   0.488   6.661 -0.6218 -0.2152 -0.0168
  119OSM    C4S12450   5.804   0.405   6.390 -0.9246  0.3083 -0.6803
  119OSM    H4S12451   5.898   0.403   6.332 -1.9520 -2.1721 -2.3934
  119OSM    C5S12452   5.700   0.345   6.338  0.3775  0.3250  0.2702
  119OSM    H5S12453   5.608   0.337   6.398 -0.2818 -0.2232 -0.7846
  119OSM    C6S12454   5.707   0.271   6.207  0.4399  0.2000 -0.7455
  119OSM    H6S12455   5.677   0.166   6.228  2.0063 -0.0649  0.4582
  119OSM    H6T12456   5.810   0.270   6.165  0.8531 -2.4356  0.1373
  119OSM    C7S12457   5.618   0.336   6.100  0.3754 -0.8240  0.2653
  119OSM    H7S12458   5.510   0.351   6.122  0.1231  2.0538 -2.2746
  119OSM    H7T12459   5.617   0.274   6.009  1.0158 -1.6222  0.7871
  119OSM    C8S12460   5.680   0.473   6.061 -0.9476 -0.4177 -0.2102
  119OSM    H8S12461   5.779   0.445   6.019 -1.0473 -0.3621 -0.4813
  119OSM    H8T12462   5.690   0.526   6.158 -0.1803  0.2311 -0.6246
  119OSM    C9S12463   5.612   0.563   5.956 -0.5059 -0.1050  0.3280
  119OSM    H9S12464   5.678   0.653   5.957 -1.9581  1.0011  1.3053
  119OSM    H9T12465   5.513   0.597   5.994 -0.6331  1.2504 -1.0850
  119OSM   C10S12466   5.606   0.499   5.816  0.0131  0.2762 -0.5793
  119OSM   H10S12467   5.689   0.425   5.803  0.0220  0.4223 -1.4088
  119OSM   H10T12468   5.608   0.582   5.743  0.4768  0.7603 -0.0273
  119OSM   C11S12469   5.468   0.429   5.786 -0.2009 -0.6080 -0.3064
  119OSM   H11S12470   5.399   0.513   5.763 -0.2524 -1.2532 -2.8634
  119OSM   H11T12471   5.436   0.375   5.878  2.5594 -0.4554  0.8377
  119OSM   C12S12472   5.482   0.329   5.669 -0.0418  0.4296  0.0373
  119OSM   H12S12473   5.377   0.296   5.651  0.8847 -3.7699  1.3173
  119OSM   H12T12474   5.541   0.237   5.689  1.8792  1.6694  0.3524
  119OSM   C13S12475   5.552   0.384   5.542 -0.0014 -0.1772  0.0552
  119OSM   H13S12476   5.655   0.409   5.574 -0.1777  0.9932 -0.2726
  119OSM   H13T12477   5.498   0.472   5.501  0.3296 -0.4835 -1.0741
  119OSM   C14S12478   5.568   0.287   5.427 -0.4088 -0.3092 -0.2435
  119OSM   H14S12479   5.638   0.209   5.464  1.3537  1.5294  0.4324
  119OSM   H14T12480   5.615   0.328   5.335 -1.5553 -1.8921 -1.6165
  119OSM   C15S12481   5.431   0.221   5.393 -0.4136 -0.4576 -0.5170
  119OSM   H15S12482   5.351   0.297   5.380 -0.0431  0.0447  0.1195
  119OSM   H15T12483   5.400   0.160   5.480  2.1660  0.7387  1.3583
  119OSM   C16S12484   5.432   0.116   5.276  0.2906 -0.0040  0.8172
  119OSM   H16S12485   5.527   0.059   5.279  0.0415 -0.4141  1.0470
  119OSM   H16T12486   5.431   0.160   5.174 -1.0387  0.7673  1.1352
  119OSM   C17S12487   5.320   0.009   5.280  0.4542 -0.0210 -0.2131
  119OSM   H17S12488   5.223   0.062   5.273  0.5683  0.1534 -0.4764
  119OSM   H17T12489   5.332  -0.041   5.379 -0.5577  2.3731  1.1981
  119OSM   C18S12490   5.324  -0.094   5.172 -0.5549 -0.4104 -0.1689
  119OSM   H18S12491   5.427  -0.135   5.173 -0.0336  0.7162  2.6596
  119OSM   H18T12492   5.290  -0.066   5.070  0.8805  1.3218 -0.2018
  119OSM   H18U12493   5.252  -0.179   5.178  0.5284 -1.7571 -3.6879
  119OSM    C1F12494   5.765   0.815   6.372 -0.1112 -0.3269  0.7151
  119OSM     OF12495   5.875   0.867   6.392 -0.0353 -0.5194 -0.2376
  119OSM    C2F12496   5.648   0.864   6.289 -0.1246 -1.2004  0.1444
  119OSM    H2F12497   5.582   0.937   6.342  0.4557  1.6810 -2.7413
  119OSM    H2G12498   5.583   0.777   6.265 -1.3285 -0.0599 -0.9128
  119OSM    C3F12499   5.699   0.939   6.163  0.8752 -0.4231 -0.1684
  119OSM    H3F12500   5.783   0.878   6.123 -0.1697 -2.1165  0.1311
  119OSM    H3G12501   5.744   1.039   6.179  1.4919 -0.5379 -1.0866
  119OSM    C4F12502   5.582   0.948   6.063 -0.3394  0.0628 -0.2997
  119OSM    H4F12503   5.503   1.014   6.105 -1.6314 -1.9934  0.6434
  119OSM    H4G12504   5.532   0.850   6.046 -0.2248  0.1832 -1.4498
  119OSM    C5F12505   5.624   0.998   5.929 -0.2904 -0.6403 -0.0841
  119OSM    H5F12506   5.693   0.928   5.879 -0.0797 -0.2170 -0.3913
  119OSM    H5G12507   5.677   1.095   5.944 -1.8048  0.0092  1.4142
  119OSM    C6F12508   5.508   1.034   5.839  0.7042  0.6041 -0.0725
  119OSM    H6F12509   5.554   1.097   5.761 -0.6348  0.2538 -1.1889
  119OSM    H6G12510   5.430   1.083   5.902 -1.6783 -0.2629 -2.1577
  119OSM    C7F12511   5.435   0.920   5.763  0.3470  0.1258 -0.4016
  119OSM    H7F12512   5.369   0.871   5.838  1.3112 -2.1929 -0.9592
  119OSM    H7G12513   5.508   0.845   5.726  1.4892  1.4408 -0.8607
  119OSM    C8F12514   5.331   0.969   5.661  0.5605 -1.0243 -0.2514
  119OSM    H8F12515   5.264   1.034   5.721  0.6551 -1.3855  0.2544
  119OSM    H8G12516   5.271   0.888   5.614  0.2602 -0.7824 -0.2871
  119OSM    C9F12517   5.406   1.039   5.549  0.2395 -0.0110 -0.5715
  119OSM    H9F12518   5.412   1.149   5.553 -0.7505  0.0323  1.6502
  119OSM   C10F12519   5.468   0.972   5.446 -0.6037  0.0210 -0.0852
  119OSM   H10F12520   5.535   1.028   5.379 -0.4969 -1.3743 -1.1845
  119OSM   C11F12521   5.468   0.820   5.429  0.8521  0.0020 -0.0930
  119OSM   H11F12522   5.428   0.775   5.523 -2.4787  0.9280 -0.9212
  119OSM   H11G12523   5.570   0.783   5.409  1.1161 -0.9356  2.5803
  119OSM   C12F12524   5.376   0.783   5.311 -0.1553 -0.2801  0.8013
  119OSM   H12F12525   5.416   0.816   5.213 -0.1077 -1.3015  0.4682
  119OSM   H12G12526   5.278   0.833   5.325 -0.0437  0.4223 -0.7476
  119OSM   C13F12527   5.349   0.632   5.299 -0.4422  0.1788  0.2920
  119OSM   H13F12528   5.316   0.600   5.400  0.0927 -0.3292  0.3055
  119OSM   H13G12529   5.444   0.583   5.270 -0.5777  0.0014  0.1461
  119OSM   C14F12530   5.235   0.590   5.203  1.2258 -0.3713 -0.1606
  119OSM   H14F12531   5.158   0.661   5.238  1.1751  0.2532 -1.4669
  119OSM   H14G12532   5.199   0.486   5.220 -0.6801  0.5919  2.1829
  119OSM   C15F12533   5.267   0.613   5.051  0.3254  0.3357 -0.1681
  119OSM   H15F12534   5.326   0.526   5.016 -0.1525  0.3708 -1.0958
  119OSM   H15G12535   5.315   0.713   5.052  0.0025  0.5336 -1.8405
  119OSM   C16F12536   5.142   0.631   4.963 -0.1160  0.0133  0.4024
  119OSM   H16F12537   5.071   0.701   5.012 -1.5491 -1.6707  0.8317
  119OSM   H16G12538   5.100   0.528   4.974 -0.2098 -0.0398 -0.3680
  119OSM   C17F12539   5.177   0.657   4.814 -0.1084 -0.1974  0.1068
  119OSM   H17F12540   5.086   0.636   4.754  0.4188 -1.2065 -0.3594
  119OSM   H17G12541   5.259   0.587   4.788  1.4023  1.8683 -0.9435
  119OSM   C18F12542   5.225   0.799   4.795 -0.1389 -0.3320 -0.0240
  119OSM   H18F12543   5.232   0.823   4.687 -0.2783 -0.9608 -0.1779
  119OSM   H18G12544   5.327   0.813   4.836  0.0925 -0.5144 -0.5344
  119OSM   H18H12545   5.165   0.873   4.852 -1.6557  0.1614 -2.1570
  120OSM      N12546   0.900   6.172   7.358  0.3247 -0.2109 -0.4162
  120OSM    C1512547   0.912   6.036   7.420  0.4835  0.0797  0.4638
  120OSM   H15A12548   0.887   6.043   7.525 -0.3832  0.1893  0.2529
  120OSM   H15B12549   1.014   6.001   7.431  0.3533 -0.0510  1.3073
  120OSM   H15C12550   0.856   5.963   7.363 -0.1312 -0.2423  1.4485
  120OSM    C1412551   0.889   6.271   7.472 -0.1473  0.0623 -0.6677
  120OSM   H14A12552   0.981   6.277   7.528 -1.0146 -1.7008  1.0849
  120OSM   H14B12553   0.805   6.246   7.536  0.0647  1.1814  0.0778
  120OSM   H14C12554   0.860   6.367   7.433 -2.2522 -0.4361 -0.4487
  120OSM    C1312555   1.015   6.213   7.276 -0.4922 -0.4375 -0.4125
  120OSM   H13A12556   1.026   6.143   7.195 -1.9651  0.8243 -1.7592
  120OSM   H13B12557   1.104   6.201   7.337 -1.4616  0.7438  1.3045
  120OSM   H13C12558   1.011   6.315   7.241 -1.2514 -0.8199 -1.4745
  120OSM    C1212559   0.773   6.178   7.280  0.0803  0.1439  0.6780
  120OSM   H12A12560   0.692   6.123   7.326 -1.4191  0.8288 -1.0326
  120OSM   H12B12561   0.798   6.136   7.184  0.3194 -1.0619  1.2533
  120OSM    C1112562   0.711   6.320   7.255  0.2779  0.1893 -0.1754
  120OSM   H11A12563   0.669   6.353   7.352  1.7708 -1.8679  1.2515
  120OSM   H11B12564   0.624   6.321   7.186  0.5112  1.4085 -0.4813
  120OSM      P12565   0.846   6.440   7.053 -0.3247 -0.0580 -0.0776
  120OSM    O1312566   0.767   6.559   7.010  0.1393  0.4018 -0.7790
  120OSM    O1412567   0.999   6.443   7.031  0.5025  0.1987 -0.8026
  120OSM    O1112568   0.786   6.308   6.988  0.5192 -0.5711 -0.4976
  120OSM    O1212569   0.808   6.420   7.206  0.2287 -0.0677 -0.2054
  120OSM    C1S12570   0.736   6.321   6.849  0.1018  0.1837  0.3939
  120OSM    H1S12571   0.686   6.418   6.827 -2.1398 -0.6343  1.5554
  120OSM    H1T12572   0.655   6.248   6.829 -0.4657  0.3013  2.0615
  120OSM     NF12573   0.800   6.308   6.613  0.2565 -0.9196  0.0016
  120OSM    HNF12574   0.768   6.227   6.565  0.9101 -1.2758  0.1661
  120OSM    C2S12575   0.854   6.291   6.744  0.5930 -0.2808  0.1904
  120OSM    H2S12576   0.929   6.369   6.765  0.0206  0.4983 -0.6198
  120OSM    C3S12577   0.923   6.156   6.771  0.2285 -0.2252 -0.2701
  120OSM    H3S12578   0.836   6.088   6.762 -0.3792  0.6785 -1.5866
  120OSM     O312579   0.973   6.146   6.905  0.4826  0.1853  0.8874
  120OSM    HO312580   0.916   6.199   6.961 -2.4464 -1.6739 -0.1268
  120OSM    C4S12581   1.031   6.125   6.669 -0.0652  0.6443  0.1127
  120OSM    H4S12582   0.991   6.061   6.590  1.9685 -0.3469 -0.1784
  120OSM    C5S12583   1.159   6.152   6.674  0.3430  0.2242  0.6542
  120OSM    H5S12584   1.197   6.212   6.758  1.2813  0.8114 -0.1620
  120OSM    C6S12585   1.265   6.111   6.576  0.0665  0.7841 -0.4259
  120OSM    H6S12586   1.338   6.041   6.623  0.3459  1.6270  0.4279
  120OSM    H6T12587   1.323   6.197   6.537  0.9348 -0.1265 -1.1692
  120OSM    C7S12588   1.214   6.027   6.454 -0.5682 -0.4554 -0.0304
  120OSM    H7S12589   1.133   6.084   6.403 -1.4765 -1.7532 -0.0603
  120OSM    H7T12590   1.171   5.932   6.489  1.5962 -0.7884  1.9899
  120OSM    C8S12591   1.327   6.019   6.348  0.4125  0.4101 -0.3224
  120OSM    H8S12592   1.424   6.020   6.402  0.5474  0.4071 -0.5606
  120OSM    H8T12593   1.329   6.101   6.273  0.1736 -1.7521 -2.8972
  120OSM    C9S12594   1.312   5.888   6.267  0.6025  0.1844 -0.4125
  120OSM    H9S12595   1.306   5.804   6.339 -1.1191  0.8851  0.3294
  120OSM    H9T12596   1.397   5.879   6.197  1.8107  2.2852  0.6781
  120OSM   C10S12597   1.175   5.884   6.197  0.1764 -0.0594  0.4777
  120OSM   H10S12598   1.098   5.896   6.276 -1.4896  0.3447 -1.1217
  120OSM   H10T12599   1.162   5.785   6.149 -1.0242 -0.3107  1.2803
  120OSM   C11S12600   1.164   5.996   6.086  0.7768 -0.1819  0.4978
  120OSM   H11S12601   1.147   6.097   6.129  3.3443  1.4336 -1.9160
  120OSM   H11T12602   1.061   5.979   6.048  0.0354  1.2221  1.7849
  120OSM   C12S12603   1.271   5.991   5.974 -0.5971 -1.3179  0.4063
  120OSM   H12S12604   1.375   5.996   6.011  0.5156  3.1615 -2.6027
  120OSM   H12T12605   1.269   6.083   5.912  0.9821 -1.5472 -0.0319
  120OSM   C13S12606   1.253   5.872   5.876  0.6442  0.2633  0.2714
  120OSM   H13S12607   1.262   5.777   5.932 -0.9254 -0.7665 -1.1580
  120OSM   H13T12608   1.344   5.875   5.812 -0.2891 -1.9734 -1.2595
  120OSM   C14S12609   1.137   5.880   5.784 -0.0761 -0.5845  0.6550
  120OSM   H14S12610   1.051   5.878   5.854 -0.3057 -1.7556  0.3660
  120OSM   H14T12611   1.123   5.792   5.717 -2.3881 -0.2290  0.5647
  120OSM   C15S12612   1.133   6.016   5.700 -0.7811  0.1766  0.6091
  120OSM   H15S12613   1.143   6.104   5.767 -0.1971  0.3554  0.2940
  120OSM   H15T12614   1.033   6.019   5.652 -0.3214 -0.1581 -0.4129
  120OSM   C16S12615   1.227   6.015   5.576 -0.1797 -0.9190 -0.2790
  120OSM   H16S12616   1.197   5.925   5.519 -1.4480 -0.7742  0.1172
  120OSM   H16T12617   1.327   5.995   5.618 -1.1308 -0.2967  2.4794
  120OSM   C17S12618   1.234   6.141   5.489 -0.1357  0.0830  0.4615
  120OSM   H17S12619   1.130   6.174   5.468 -0.5838 -1.2426  0.4976
  120OSM   H17T12620   1.281   6.119   5.390 -2.3102  0.8298 -0.8117
  120OSM   C18S12621   1.306   6.259   5.542  0.1729  0.4857 -0.9282
  120OSM   H18S12622   1.413   6.251   5.515  0.5960 -3.0628  1.0570
  120OSM   H18T12623   1.288   6.257   5.652  0.1293 -1.1989 -0.9271
  120OSM   H18U12624   1.260   6.349   5.497  1.0535  1.6621  0.4506
  120OSM    C1F12625   0.768   6.429   6.569 -0.0454 -0.0331  0.7772
  120OSM     OF12626   0.808   6.535   6.621  0.3598 -0.4733 -0.0750
  120OSM    C2F12627   0.687   6.432   6.450 -0.1665 -0.0342  0.3629
  120OSM    H2F12628   0.592   6.389   6.488  0.4176 -0.8577  0.9365
  120OSM    H2G12629   0.720   6.359   6.373 -1.7441 -1.8576  1.3327
  120OSM    C3F12630   0.685   6.564   6.370 -0.3233 -0.1033 -0.3852
  120OSM    H3F12631   0.791   6.592   6.355 -0.5483  1.4545  0.7217
  120OSM    H3G12632   0.641   6.650   6.425  0.9224  1.2292 -1.4058
  120OSM    C4F12633   0.604   6.552   6.237 -0.5256  0.2532  0.0812
  120OSM    H4F12634   0.505   6.505   6.257 -0.3646 -1.2486 -2.3352
  120OSM    H4G12635   0.656   6.476   6.175 -2.3416 -0.4974 -0.5980
  120OSM    C5F12636   0.590   6.684   6.163 -0.5303  0.2648  0.5781
  120OSM    H5F12637   0.690   6.732   6.165  0.0813 -0.9935  1.5950
  120OSM    H5G12638   0.521   6.746   6.225 -1.8647 -1.9801  1.4463
  120OSM    C6F12639   0.532   6.663   6.019 -0.4945 -0.5666 -1.1682
  120OSM    H6F12640   0.531   6.760   5.964 -0.9850 -0.5421 -1.1241
  120OSM    H6G12641   0.431   6.617   6.029 -0.8293  0.1757 -1.0459
  120OSM    C7F12642   0.619   6.565   5.934 -0.0964 -0.0707 -0.7708
  120OSM    H7F12643   0.626   6.465   5.981  0.4343  0.1450 -0.3843
  120OSM    H7G12644   0.723   6.605   5.934 -0.2994  0.6934  2.3165
  120OSM    C8F12645   0.560   6.552   5.792  0.0220 -0.2464 -0.2479
  120OSM    H8F12646   0.638   6.497   5.735 -0.6428 -0.9045 -0.5247
  120OSM    H8G12647   0.544   6.650   5.742  0.4292 -0.0348  0.0232
  120OSM    C9F12648   0.437   6.471   5.800  0.5788 -0.4589  0.7929
  120OSM    H9F12649   0.394   6.451   5.899  0.0118  0.5029  0.7623
  120OSM   C10F12650   0.378   6.393   5.701 -0.2386 -0.1702 -0.5958
  120OSM   H10F12651   0.286   6.339   5.727  0.6681 -1.6564 -0.3510
  120OSM   C11F12652   0.431   6.375   5.558 -0.0367 -0.6349 -0.4874
  120OSM   H11F12653   0.414   6.270   5.525 -2.8754 -0.8207  1.2460
  120OSM   H11G12654   0.542   6.377   5.557 -0.0279 -1.0655 -0.6099
  120OSM   C12F12655   0.369   6.467   5.447 -0.7702 -0.1581  0.0995
  120OSM   H12F12656   0.258   6.456   5.447 -1.1032  2.3342 -0.8152
  120OSM   H12G12657   0.403   6.440   5.345 -0.2123  0.4275  0.1197
  120OSM   C13F12658   0.403   6.611   5.469  0.3419 -0.1935  0.2658
  120OSM   H13F12659   0.511   6.637   5.471 -0.1082  2.0476 -1.0599
  120OSM   H13G12660   0.365   6.636   5.570 -1.0195 -0.7355 -0.0920
  120OSM   C14F12661   0.337   6.718   5.372  0.0596 -0.0695  0.2350
  120OSM   H14F12662   0.380   6.700   5.272  0.8491 -0.4269  0.6333
  120OSM   H14G12663   0.366   6.822   5.396 -1.0961  0.1073  0.9545
  120OSM   C15F12664   0.185   6.721   5.370 -0.1055  0.8499  0.4494
  120OSM   H15F12665   0.142   6.751   5.468 -0.1267  0.3769  0.5889
  120OSM   H15G12666   0.160   6.614   5.355  3.1922  0.0653 -0.2110
  120OSM   C16F12667   0.118   6.808   5.260  0.0966  0.4632 -0.0905
  120OSM   H16F12668   0.133   6.769   5.157 -0.9962  2.2266 -0.9624
  120OSM   H16G12669   0.155   6.913   5.256  1.2235  0.0596 -0.6153
  120OSM   C17F12670  -0.027   6.806   5.268  0.0872 -0.3756  0.3369
  120OSM   H17F12671  -0.060   6.836   5.370 -0.5854 -1.1255  0.3477
  120OSM   H17G12672  -0.067   6.705   5.246 -0.1722  0.3721 -3.1640
  120OSM   C18F12673  -0.093   6.909   5.174 -1.0627  0.8723 -0.4284
  120OSM   H18F12674  -0.057   7.010   5.201  2.6119  0.2021 -2.1491
  120OSM   H18G12675  -0.204   6.906   5.183 -1.2541 -2.1609 -2.2179
  120OSM   H18H12676  -0.073   6.893   5.066 -1.1305 -1.5450 -0.1516
  121OSM      N12677   1.771   1.399   7.102  0.3079 -0.4931  0.0560
  121OSM    C1512678   1.662   1.481   7.056 -0.2066  0.2685  0.5715
  121OSM   H15A12679   1.652   1.507   6.951 -0.9716  2.1773  1.0842
  121OSM   H15B12680   1.653   1.577   7.104  2.1309 -0.3115  2.3536
  121OSM   H15C12681   1.569   1.430   7.078 -0.1432 -1.1421 -2.0084
  121OSM    C1412682   1.775   1.388   7.254 -0.0833 -0.1840  0.2469
  121OSM   H14A12683   1.676   1.373   7.293  0.2010  0.6663  1.3672
  121OSM   H14B12684   1.814   1.479   7.297 -2.5810  1.5786 -0.9532
  121OSM   H14C12685   1.848   1.313   7.279 -1.1149 -0.9776  0.9243
  121OSM    C1312686   1.749   1.261   7.053 -0.2178  0.7580  0.0036
  121OSM   H13A12687   1.742   1.269   6.945  0.7153  3.6150  0.0752
  121OSM   H13B12688   1.659   1.216   7.090  1.1426 -0.5904  1.8908
  121OSM   H13C12689   1.838   1.203   7.075 -1.1036 -0.2771  0.9875
  121OSM    C1212690   1.901   1.464   7.056  0.0771  0.1201 -0.2945
  121OSM   H12A12691   1.970   1.446   7.137 -1.3880  0.8049  1.1454
  121OSM   H12B12692   1.884   1.570   7.052 -2.0207 -0.1445  0.3625
  121OSM    C1112693   1.963   1.428   6.917  0.4430 -0.4020 -0.3862
  121OSM   H11A12694   2.029   1.511   6.882  3.1524 -2.8084 -1.4401
  121OSM   H11B12695   1.880   1.422   6.843 -1.9944  2.4488  1.8783
  121OSM      P12696   2.171   1.277   6.973 -0.0501 -0.7045 -0.4155
  121OSM    O1312697   2.201   1.379   7.083 -0.8324 -0.0779 -0.1915
  121OSM    O1412698   2.200   1.139   7.002  0.3882  0.8185 -0.0291
  121OSM    O1112699   2.278   1.312   6.864  0.2204 -0.1757  0.3419
  121OSM    O1212700   2.031   1.302   6.917 -0.1635  0.4363 -0.5819
  121OSM    C1S12701   2.274   1.253   6.730  0.3880  0.1319 -0.3390
  121OSM    H1S12702   2.178   1.200   6.711 -0.2737  0.7583  1.0651
  121OSM    H1T12703   2.362   1.191   6.707  0.1846 -0.9429  1.5771
  121OSM     NF12704   2.224   1.335   6.488  0.4709 -0.5667  0.3237
  121OSM    HNF12705   2.290   1.348   6.414 -1.0106  1.2830 -0.7622
  121OSM    C2S12706   2.280   1.370   6.621  0.3018 -0.4940  0.3104
  121OSM    H2S12707   2.209   1.448   6.657  1.4309  1.1354 -0.8206
  121OSM    C3S12708   2.415   1.441   6.612 -0.6059 -0.1228  1.0759
  121OSM    H3S12709   2.488   1.368   6.571  0.1031  0.3767  1.4282
  121OSM     O312710   2.461   1.481   6.740  0.0695  0.1888 -0.7676
  121OSM    HO312711   2.389   1.452   6.796  0.6901  0.1485  0.0101
  121OSM    C4S12712   2.397   1.568   6.523  0.1207  0.6612  0.4092
  121OSM    H4S12713   2.405   1.543   6.416 -0.9119  1.1098  0.2212
  121OSM    C5S12714   2.378   1.696   6.568  0.4312 -0.5035  0.7668
  121OSM    H5S12715   2.396   1.721   6.673 -1.0897 -0.0701  0.9530
  121OSM    C6S12716   2.373   1.825   6.485  0.3319 -0.3605 -0.4687
  121OSM    H6S12717   2.461   1.887   6.513  0.3575  0.4302 -2.2310
  121OSM    H6T12718   2.283   1.885   6.507  1.4762  0.3968  2.7549
  121OSM    C7S12719   2.383   1.807   6.330  0.0754  0.4509  0.0164
  121OSM    H7S12720   2.295   1.747   6.297 -0.3601  1.0861  0.0017
  121OSM    H7T12721   2.469   1.738   6.318 -0.2551 -0.2728  1.5539
  121OSM    C8S12722   2.383   1.939   6.249 -0.1902 -0.0799  0.8968
  121OSM    H8S12723   2.479   1.995   6.255  0.2431 -0.4295 -1.7259
  121OSM    H8T12724   2.315   2.012   6.298  1.8965  0.5052  3.1171
  121OSM    C9S12725   2.359   1.921   6.098 -0.3211 -0.0485  0.1872
  121OSM    H9S12726   2.349   2.013   6.036 -0.6080  0.9446  1.6588
  121OSM    H9T12727   2.264   1.865   6.088  0.1221 -0.6831 -0.5311
  121OSM   C10S12728   2.465   1.842   6.016 -0.2429 -0.5077  0.0939
  121OSM   H10S12729   2.485   1.744   6.065 -1.1265 -0.5780  0.3389
  121OSM   H10T12730   2.560   1.895   6.037 -0.6048  0.4107 -0.5296
  121OSM   C11S12731   2.414   1.836   5.874 -0.0225  0.9019  0.6645
  121OSM   H11S12732   2.304   1.847   5.865 -0.3232 -2.2130 -0.8749
  121OSM   H11T12733   2.409   1.734   5.831 -1.2519  2.0654 -2.2305
  121OSM   C12S12734   2.496   1.921   5.774  0.7700 -0.0227  0.2646
  121OSM   H12S12735   2.597   1.879   5.755  0.3758 -0.4909 -0.8605
  121OSM   H12T12736   2.516   2.022   5.816 -0.8577  0.5699 -0.3322
  121OSM   C13S12737   2.435   1.934   5.634  0.6122 -0.0203 -0.7876
  121OSM   H13S12738   2.347   2.001   5.636  0.5382 -0.1367  1.1771
  121OSM   H13T12739   2.399   1.838   5.591  1.0573 -0.0493 -1.1093
  121OSM   C14S12740   2.541   1.986   5.536 -0.3232  0.2565 -0.1604
  121OSM   H14S12741   2.643   1.945   5.556 -1.2292 -1.7010  0.7182
  121OSM   H14T12742   2.556   2.096   5.543  4.4201 -0.0089 -2.2290
  121OSM   C15S12743   2.508   1.933   5.398  0.0950  0.5141 -0.5046
  121OSM   H15S12744   2.407   1.964   5.365 -0.2795 -1.6352 -1.5836
  121OSM   H15T12745   2.503   1.822   5.396  2.7970  0.3449 -1.4097
  121OSM   C16S12746   2.602   1.987   5.280  0.7363 -0.0545  0.2361
  121OSM   H16S12747   2.584   2.096   5.264  1.8331  0.0311 -0.6182
  121OSM   H16T12748   2.575   1.934   5.186 -0.2266  0.1714  0.3761
  121OSM   C17S12749   2.753   1.973   5.307 -0.4307  0.2153  0.7950
  121OSM   H17S12750   2.772   1.866   5.330  4.7469  0.7854  0.2267
  121OSM   H17T12751   2.795   2.029   5.392  0.5264  0.5238  0.1324
  121OSM   C18S12752   2.840   2.013   5.184  0.3410 -0.5714 -0.3692
  121OSM   H18S12753   2.859   2.123   5.190 -1.0736 -0.3260 -0.0305
  121OSM   H18T12754   2.784   1.984   5.092 -5.3180  0.0988  2.4005
  121OSM   H18U12755   2.935   1.956   5.192 -0.0177 -0.8810  3.0673
  121OSM    C1F12756   2.103   1.277   6.465 -0.2748 -0.4854  0.4763
  121OSM     OF12757   2.018   1.254   6.554  1.1521 -0.1938  0.6398
  121OSM    C2F12758   2.076   1.241   6.321  0.3671  0.1133  0.4302
  121OSM    H2F12759   2.146   1.161   6.287 -1.1974 -0.9408 -0.4067
  121OSM    H2G12760   2.097   1.334   6.264 -1.3430 -0.3588 -1.0446
  121OSM    C3F12761   1.921   1.215   6.290 -0.2630  0.8589 -0.0943
  121OSM    H3F12762   1.862   1.305   6.314  2.0589  2.1597  1.0784
  121OSM    H3G12763   1.898   1.127   6.354 -0.4416  0.6050 -0.5046
  121OSM    C4F12764   1.887   1.186   6.139 -0.1419  0.3477 -0.4849
  121OSM    H4F12765   1.941   1.094   6.112 -0.5054 -0.3394  1.0511
  121OSM    H4G12766   1.935   1.265   6.076  2.7811  0.9683  2.2574
  121OSM    C5F12767   1.737   1.183   6.105 -0.3495  0.3390 -0.4956
  121OSM    H5F12768   1.700   1.288   6.113  2.1429  1.1656  3.1548
  121OSM    H5G12769   1.690   1.117   6.181 -0.1236  1.1739  0.4078
  121OSM    C6F12770   1.715   1.149   5.958 -0.0365  0.0168 -0.2414
  121OSM    H6F12771   1.610   1.112   5.958 -0.1866  0.4386 -0.0011
  121OSM    H6G12772   1.786   1.066   5.936  1.2530  1.3117 -1.1862
  121OSM    C7F12773   1.721   1.270   5.865 -0.3037 -0.1863 -0.4441
  121OSM    H7F12774   1.828   1.297   5.884 -0.4701  0.0073  0.2605
  121OSM    H7G12775   1.658   1.354   5.900 -0.2736 -0.1255 -0.5376
  121OSM    C8F12776   1.691   1.243   5.720 -0.5519  0.2126  0.2117
  121OSM    H8F12777   1.691   1.342   5.669 -1.0009  0.8466  1.4098
  121OSM    H8G12778   1.592   1.198   5.695  1.0862 -3.5182 -0.2358
  121OSM    C9F12779   1.804   1.158   5.664 -1.0542  0.0369 -0.8097
  121OSM    H9F12780   1.812   1.057   5.705  0.7343  0.1055 -0.9212
  121OSM   C10F12781   1.897   1.191   5.573 -0.3947 -0.5556  0.8633
  121OSM   H10F12782   1.978   1.121   5.547 -0.1883  0.5736 -1.9681
  121OSM   C11F12783   1.891   1.321   5.497  0.4529 -1.1109 -0.2172
  121OSM   H11F12784   1.995   1.352   5.472 -0.0920 -0.2505 -1.5407
  121OSM   H11G12785   1.858   1.406   5.561  1.1229 -1.0771  0.0918
  121OSM   C12F12786   1.825   1.316   5.363 -0.4495  0.3453  0.4502
  121OSM   H12F12787   1.803   1.416   5.320 -1.2990 -0.5714 -1.3292
  121OSM   H12G12788   1.730   1.259   5.362 -1.5178  2.0855 -0.9300
  121OSM   C13F12789   1.926   1.250   5.265  0.1223 -0.6173  0.5309
  121OSM   H13F12790   1.966   1.152   5.298  0.3135 -0.6648  0.1597
  121OSM   H13G12791   2.015   1.314   5.253 -1.0903  0.9495 -0.4845
  121OSM   C14F12792   1.852   1.232   5.130  0.2022  0.1484 -0.6229
  121OSM   H14F12793   1.849   1.336   5.090  1.4698  0.5088  0.1537
  121OSM   H14G12794   1.750   1.190   5.144 -0.1537  1.4477  0.9329
  121OSM   C15F12795   1.931   1.140   5.021  0.1967  0.0671  0.5208
  121OSM   H15F12796   1.916   1.039   5.064  0.7933  1.1900  3.6492
  121OSM   H15G12797   2.039   1.167   5.020  0.4011 -0.7314  0.1354
  121OSM   C16F12798   1.884   1.131   4.873 -0.0389  0.5182  0.1261
  121OSM   H16F12799   1.902   1.233   4.833 -1.6427  0.3544 -1.0808
  121OSM   H16G12800   1.778   1.098   4.870  0.4814 -1.2702 -2.8808
  121OSM   C17F12801   1.983   1.033   4.794  0.6543 -0.2484 -0.3937
  121OSM   H17F12802   1.929   0.997   4.704 -1.1647  0.0851  0.5170
  121OSM   H17G12803   2.009   0.952   4.865 -4.0628  0.8799  3.1423
  121OSM   C18F12804   2.109   1.107   4.755  0.2187 -0.1122  0.1458
  121OSM   H18F12805   2.076   1.172   4.671 -1.2696  0.4203  1.0872
  121OSM   H18G12806   2.188   1.033   4.734  2.1042  1.0751  2.5227
  121OSM   H18H12807   2.158   1.173   4.830  0.8134  0.5763 -0.8136
  122OSM      N12808   2.670   4.103   7.537 -0.8505  0.2298  0.2536
  122OSM    C1512809   2.647   4.106   7.691  0.2650 -0.0326 -0.0222
  122OSM   H15A12810   2.695   4.191   7.735 -1.5949  0.3161  1.4742
  122OSM   H15B12811   2.701   4.021   7.731  0.1430 -0.3634 -0.5461
  122OSM   H15C12812   2.543   4.121   7.718 -0.3788  0.3824 -2.4510
  122OSM    C1412813   2.600   3.989   7.472  0.0884  0.3264  0.4155
  122OSM   H14A12814   2.591   4.001   7.365 -1.4661 -1.3574  0.2994
  122OSM   H14B12815   2.492   3.986   7.483  0.0924 -1.1155  0.3203
  122OSM   H14C12816   2.646   3.895   7.498 -0.9349 -0.2046  0.3601
  122OSM    C1312817   2.605   4.228   7.480  0.4840  0.8160 -0.2841
  122OSM   H13A12818   2.497   4.225   7.476  0.4674  1.3188 -0.2668
  122OSM   H13B12819   2.630   4.238   7.375 -0.7424 -1.5879 -0.8911
  122OSM   H13C12820   2.634   4.318   7.531  0.3989  1.3986 -1.2512
  122OSM    C1212821   2.818   4.106   7.495 -0.4458 -0.1750  0.4856
  122OSM   H12A12822   2.862   4.200   7.526 -1.5162 -0.0142  1.5941
  122OSM   H12B12823   2.823   4.089   7.389 -1.3176  2.3531 -0.0349
  122OSM    C1112824   2.915   3.995   7.550 -0.1453 -0.1021  0.1127
  122OSM   H11A12825   2.923   4.002   7.661 -0.1478  0.7232  0.0683
  122OSM   H11B12826   3.021   4.016   7.528 -0.3024 -0.0625 -0.6492
  122OSM      P12827   2.932   3.819   7.354 -0.1710  0.6488  0.3739
  122OSM    O1312828   3.082   3.814   7.346 -0.4492  0.1345  0.1830
  122OSM    O1412829   2.858   3.698   7.316  0.1993  0.1447 -0.2258
  122OSM    O1112830   2.890   3.937   7.258  0.2144  0.5381  0.0766
  122OSM    O1212831   2.888   3.861   7.504 -0.0716 -0.4466  0.3336
  122OSM    C1S12832   2.960   3.986   7.144 -0.9953 -1.2753  0.0065
  122OSM    H1S12833   3.045   3.916   7.128  0.6020  0.6220 -0.2397
  122OSM    H1T12834   3.006   4.086   7.160 -0.9231 -1.3944  0.5664
  122OSM     NF12835   2.930   4.016   6.891 -0.1903  0.0206  0.7480
  122OSM    HNF12836   2.931   4.111   6.863 -2.0321  0.1548  1.0041
  122OSM    C2S12837   2.868   3.991   7.019 -1.1857  0.1061  0.9619
  122OSM    H2S12838   2.839   3.884   7.019  1.2999 -0.6303  0.6984
  122OSM    C3S12839   2.749   4.084   7.044 -0.6278  0.0202 -0.7089
  122OSM    H3S12840   2.781   4.189   7.055  0.0747 -0.2924  0.4461
  122OSM     O312841   2.685   4.051   7.159  0.2706  0.2193 -0.3877
  122OSM    HO312842   2.735   3.976   7.194 -1.4126 -1.5144 -1.5261
  122OSM    C4S12843   2.643   4.049   6.936  0.1522  0.2409  0.4859
  122OSM    H4S12844   2.610   3.945   6.931  3.6465 -1.0075  0.4698
  122OSM    C5S12845   2.612   4.125   6.831 -0.6776  0.1647 -0.1224
  122OSM    H5S12846   2.660   4.220   6.803 -2.8754  1.3863  0.0208
  122OSM    C6S12847   2.519   4.071   6.723 -0.0235 -0.4902 -0.4327
  122OSM    H6S12848   2.419   4.120   6.722  0.8565  1.4064  0.1194
  122OSM    H6T12849   2.508   3.961   6.738 -0.4254 -0.3345  0.5105
  122OSM    C7S12850   2.588   4.096   6.591  0.3590 -0.9721  0.3785
  122OSM    H7S12851   2.697   4.082   6.602  0.4548 -0.1683  0.4910
  122OSM    H7T12852   2.577   4.204   6.568  1.6601 -1.0433 -0.6926
  122OSM    C8S12853   2.517   4.032   6.474 -0.2996 -0.5071  0.0839
  122OSM    H8S12854   2.418   4.083   6.470  0.1636  0.3330 -2.2002
  122OSM    H8T12855   2.495   3.925   6.492  0.9281 -1.0374 -1.4302
  122OSM    C9S12856   2.588   4.071   6.343  0.5090 -0.0199 -0.4016
  122OSM    H9S12857   2.686   4.018   6.338  0.5351 -0.3118  2.1899
  122OSM    H9T12858   2.610   4.179   6.339  0.5175 -0.0233 -0.4597
  122OSM   C10S12859   2.496   4.038   6.229 -0.2449  0.2545  0.3164
  122OSM   H10S12860   2.405   4.102   6.234 -1.6326 -1.4221 -1.7447
  122OSM   H10T12861   2.468   3.931   6.243 -1.0174  0.4289  0.1440
  122OSM   C11S12862   2.574   4.055   6.098 -0.2430 -0.0030 -0.0589
  122OSM   H11S12863   2.668   3.995   6.102 -0.7681 -0.8597  4.7624
  122OSM   H11T12864   2.583   4.164   6.075 -1.3087 -0.3356 -2.2590
  122OSM   C12S12865   2.494   3.998   5.982 -0.0107  0.4870 -0.0863
  122OSM   H12S12866   2.389   4.034   5.969 -1.2071 -2.3552  0.9197
  122OSM   H12T12867   2.483   3.891   6.007  0.6782  0.5230  0.3957
  122OSM   C13S12868   2.568   4.026   5.855 -0.4780 -0.1592  0.1272
  122OSM   H13S12869   2.674   3.991   5.853 -0.3209  0.0062  2.4885
  122OSM   H13T12870   2.587   4.135   5.845  0.3597 -0.4867 -2.7786
  122OSM   C14S12871   2.500   3.986   5.720  0.3754  0.2258 -0.5839
  122OSM   H14S12872   2.394   4.018   5.726  0.7516  1.6173 -0.9942
  122OSM   H14T12873   2.504   3.876   5.710  1.2339  0.3705 -2.1391
  122OSM   C15S12874   2.574   4.033   5.594  0.2982 -0.0976  0.7935
  122OSM   H15S12875   2.668   3.974   5.604  1.0986  0.7951 -0.9033
  122OSM   H15T12876   2.604   4.140   5.598  0.7756 -0.2413  3.3879
  122OSM   C16S12877   2.509   3.982   5.461 -0.0504 -0.2496 -0.4220
  122OSM   H16S12878   2.424   4.049   5.434 -1.4359 -0.4636  2.8608
  122OSM   H16T12879   2.467   3.885   5.497  0.6336  0.0293  1.2228
  122OSM   C17S12880   2.617   3.964   5.360 -0.3155 -0.0589  0.3641
  122OSM   H17S12881   2.701   3.905   5.402  0.7523 -0.0599 -1.6293
  122OSM   H17T12882   2.645   4.070   5.338 -0.5689 -0.0587  0.0320
  122OSM   C18S12883   2.565   3.907   5.232  0.0767 -0.4160  0.6071
  122OSM   H18S12884   2.480   3.965   5.189 -0.1373 -1.7069 -0.7815
  122OSM   H18T12885   2.515   3.809   5.247 -0.3901 -0.0842  1.2885
  122OSM   H18U12886   2.646   3.904   5.156 -0.4100  0.0725  0.0612
  122OSM    C1F12887   3.024   3.926   6.847 -0.4838  0.5561  0.5405
  122OSM     OF12888   3.022   3.809   6.884  0.0253  0.3401  0.3627
  122OSM    C2F12889   3.112   3.975   6.740 -0.0621 -0.1182  0.4244
  122OSM    H2F12890   3.140   4.080   6.763  2.0165 -1.2078  3.5928
  122OSM    H2G12891   3.051   3.974   6.648 -1.6666  0.4611  1.4338
  122OSM    C3F12892   3.244   3.886   6.723 -0.4375  0.2083 -0.1389
  122OSM    H3F12893   3.223   3.777   6.730 -0.5197  0.2411  0.1817
  122OSM    H3G12894   3.295   3.897   6.821  0.8933  0.8582 -0.8802
  122OSM    C4F12895   3.346   3.908   6.608 -0.8035  0.3459 -0.4620
  122OSM    H4F12896   3.415   3.821   6.616 -0.3172  0.7595 -0.0537
  122OSM    H4G12897   3.399   3.997   6.648 -1.4921 -0.2924  2.0917
  122OSM    C5F12898   3.288   3.916   6.468 -0.1068  0.0204  0.4144
  122OSM    H5F12899   3.205   3.988   6.483 -0.6689 -0.8848  1.8106
  122OSM    H5G12900   3.252   3.820   6.425  0.2608 -0.2817  0.7694
  122OSM    C6F12901   3.391   3.965   6.368  0.3045 -0.5636  0.1055
  122OSM    H6F12902   3.456   3.876   6.354  1.0331 -0.3500  1.8531
  122OSM    H6G12903   3.463   4.039   6.409 -0.6197  1.2537 -1.3589
  122OSM    C7F12904   3.342   4.022   6.231 -0.0716  0.4357 -0.2107
  122OSM    H7F12905   3.433   4.060   6.181  0.4666 -0.7332 -0.1650
  122OSM    H7G12906   3.273   4.106   6.252  0.0667 -0.0185  2.4455
  122OSM    C8F12907   3.266   3.928   6.143 -0.5104  0.4924  0.2984
  122OSM    H8F12908   3.219   3.986   6.060 -0.7018 -0.4707 -0.2756
  122OSM    H8G12909   3.178   3.883   6.193 -0.7577 -0.8466 -1.2704
  122OSM    C9F12910   3.359   3.824   6.077  0.8951  0.2794  0.9853
  122OSM    H9F12911   3.400   3.745   6.141  0.1494 -1.3127 -0.4128
  122OSM   C10F12912   3.386   3.813   5.938 -0.1250  0.0355  0.0661
  122OSM   H10F12913   3.466   3.744   5.904 -1.6277 -2.8238  1.9329
  122OSM   C11F12914   3.329   3.914   5.833 -0.6847  0.0932  0.3389
  122OSM   H11F12915   3.400   3.996   5.807 -1.2466  0.0829 -1.3566
  122OSM   H11G12916   3.237   3.967   5.866  0.6065  1.6258  1.6331
  122OSM   C12F12917   3.311   3.857   5.693 -0.8872  0.8818  0.0892
  122OSM   H12F12918   3.234   3.778   5.690 -1.0826  1.0620  0.2957
  122OSM   H12G12919   3.410   3.814   5.670  0.4303  3.2870  0.8815
  122OSM   C13F12920   3.283   3.968   5.594  0.3219 -0.1464  0.2609
  122OSM   H13F12921   3.368   4.039   5.605  1.6554 -1.7189  0.5135
  122OSM   H13G12922   3.199   4.030   5.632  0.4528 -1.2539  2.5317
  122OSM   C14F12923   3.258   3.919   5.451 -0.3487 -0.1295  0.8077
  122OSM   H14F12924   3.232   4.007   5.388  0.8566  0.4873  1.1566
  122OSM   H14G12925   3.174   3.846   5.449 -0.5016  0.0314 -1.5753
  122OSM   C15F12926   3.381   3.858   5.384  0.5645  0.0378  0.1644
  122OSM   H15F12927   3.406   3.758   5.423 -0.2955 -0.7960 -1.3224
  122OSM   H15G12928   3.472   3.919   5.404  0.2130  1.1318 -1.3303
  122OSM   C16F12929   3.380   3.851   5.229  0.2407  0.1376  0.3994
  122OSM   H16F12930   3.294   3.788   5.198  1.4981 -1.5888  0.2914
  122OSM   H16G12931   3.463   3.782   5.204  0.5455  1.1683 -1.6110
  122OSM   C17F12932   3.402   3.986   5.170  0.2379  0.0804  0.2104
  122OSM   H17F12933   3.503   4.018   5.204 -0.2470  1.4342  0.4299
  122OSM   H17G12934   3.325   4.059   5.202  0.4148  0.3439  0.0416
  122OSM   C18F12935   3.416   3.990   5.021 -0.3207  0.6219 -1.0896
  122OSM   H18F12936   3.322   3.951   4.979 -0.7709 -1.7419  1.8013
  122OSM   H18G12937   3.498   3.926   4.983 -1.1462  0.1699 -2.1493
  122OSM   H18H12938   3.435   4.096   4.992  0.8408  0.0522 -2.5657
  123OSM      N12939   5.009   3.654   2.041  0.2120  0.8370 -0.1109
  123OSM    C1512940   4.956   3.527   2.096 -0.1549  0.1071  0.0926
  123OSM   H15A12941   5.027   3.448   2.084  0.4495  0.5053  0.9583
  123OSM   H15B12942   4.872   3.494   2.037 -0.2640  1.2578 -0.4335
  123OSM   H15C12943   4.920   3.534   2.198 -1.0229 -0.4014 -0.1713
  123OSM    C1412944   5.045   3.639   1.895 -0.3847 -0.2994 -0.2557
  123OSM   H14A12945   4.960   3.590   1.849 -1.0675  1.3001 -0.7815
  123OSM   H14B12946   5.132   3.575   1.891  0.3391  0.3934  2.4787
  123OSM   H14C12947   5.061   3.735   1.847 -0.9694  0.0714  0.2749
  123OSM    C1312948   4.901   3.760   2.065  0.3264  0.3702 -0.1993
  123OSM   H13A12949   4.849   3.758   2.160 -1.9282 -2.8669 -1.3392
  123OSM   H13B12950   4.814   3.743   2.004  0.3775 -0.0539 -0.1595
  123OSM   H13C12951   4.947   3.857   2.053 -0.2141  0.2898 -4.4990
  123OSM    C1212952   5.132   3.698   2.115  0.7356  0.4555  0.5022
  123OSM   H12A12953   5.163   3.793   2.074 -0.9738  0.9700  0.3288
  123OSM   H12B12954   5.213   3.632   2.089 -0.3025 -0.0949 -1.5075
  123OSM    C1112955   5.113   3.716   2.269  0.2716 -0.5773  0.0158
  123OSM   H11A12956   5.215   3.705   2.314  0.0194  1.2827  1.1635
  123OSM   H11B12957   5.052   3.634   2.312 -0.1032 -0.1397  0.3158
  123OSM      P12958   5.142   3.969   2.282 -0.2310  0.0930  0.0683
  123OSM    O1312959   5.223   3.973   2.162 -0.4509  0.2612  0.1097
  123OSM    O1412960   5.054   4.084   2.303  0.3158  0.4923  0.3407
  123OSM    O1112961   5.245   3.965   2.397  0.4319  0.0200  0.0550
  123OSM    O1212962   5.054   3.844   2.296  0.3369 -0.1296  0.2921
  123OSM    C1S12963   5.191   3.920   2.524  0.1474  0.4117  0.4203
  123OSM    H1S12964   5.177   3.810   2.522 -0.3244  0.3922 -3.1673
  123OSM    H1T12965   5.089   3.963   2.532  0.6315  1.8307 -0.6209
  123OSM     NF12966   5.182   3.911   2.764 -0.3092 -0.0876 -0.8665
  123OSM    HNF12967   5.129   3.976   2.819 -1.3676 -0.8109 -1.0223
  123OSM    C2S12968   5.265   3.964   2.651 -1.0046  0.1672  0.5371
  123OSM    H2S12969   5.364   3.913   2.652 -0.5270  0.8130 -2.4897
  123OSM    C3S12970   5.293   4.123   2.658 -0.2783 -0.1864 -0.3189
  123OSM    H3S12971   5.195   4.174   2.673 -1.6786 -3.0436  1.0684
  123OSM     O312972   5.335   4.175   2.537 -0.5228  0.1963  0.1237
  123OSM    HO312973   5.295   4.116   2.473 -2.1236  0.4954  0.7871
  123OSM    C4S12974   5.377   4.145   2.782  0.1655 -0.0999 -0.3756
  123OSM    H4S12975   5.455   4.068   2.793 -0.5235 -0.8487 -0.5672
  123OSM    C5S12976   5.354   4.240   2.874 -0.0467  0.2428 -0.7920
  123OSM    H5S12977   5.261   4.299   2.874 -0.1322  0.1128 -0.3504
  123OSM    C6S12978   5.435   4.256   3.002  0.3634 -0.9973  0.4548
  123OSM    H6S12979   5.466   4.362   3.009 -3.3239  0.1429  2.5336
  123OSM    H6T12980   5.517   4.181   2.992 -0.5371 -1.7396 -2.4537
  123OSM    C7S12981   5.345   4.209   3.123  0.8727  0.5016  0.2217
  123OSM    H7S12982   5.410   4.183   3.209 -0.5927 -1.9684  0.6746
  123OSM    H7T12983   5.315   4.106   3.092  0.3855  1.0924 -1.3505
  123OSM    C8S12984   5.218   4.282   3.154 -0.5442 -0.4113 -0.3222
  123OSM    H8S12985   5.138   4.270   3.078 -0.3649 -1.1228 -0.4098
  123OSM    H8T12986   5.240   4.390   3.165 -0.5037 -0.4860  0.4307
  123OSM    C9S12987   5.165   4.227   3.289 -0.4355  0.2408  0.0189
  123OSM    H9S12988   5.171   4.116   3.284 -0.3920  0.2951 -2.7986
  123OSM    H9T12989   5.065   4.273   3.304 -1.0265 -1.6715  2.7939
  123OSM   C10S12990   5.242   4.266   3.419 -0.5093 -0.2440 -0.3954
  123OSM   H10S12991   5.277   4.371   3.423 -0.6228 -0.1688 -1.1272
  123OSM   H10T12992   5.338   4.211   3.427 -1.2145 -1.5449 -0.5628
  123OSM   C11S12993   5.164   4.251   3.553  0.5458 -0.6681 -0.1529
  123OSM   H11S12994   5.116   4.151   3.552  2.7219 -1.7850 -1.9429
  123OSM   H11T12995   5.086   4.330   3.558  0.7760 -0.3769 -1.0413
  123OSM   C12S12996   5.242   4.273   3.685  0.1061 -0.3438  0.6816
  123OSM   H12S12997   5.297   4.370   3.691  1.9018 -1.3338  1.0291
  123OSM   H12T12998   5.326   4.200   3.675  0.6029  0.5024 -2.1257
  123OSM   C13S12999   5.156   4.248   3.813  0.5909  1.2188  1.0211
  123OSM   H13S13000   5.083   4.165   3.808 -1.0402  2.6632 -0.8819
  123OSM   H13T13001   5.107   4.344   3.841 -0.9076  0.9462 -0.5189
  123OSM   C14S13002   5.254   4.214   3.926  0.7158 -1.0613  0.1021
  123OSM   H14S13003   5.337   4.288   3.934 -0.5245  0.1654  3.3677
  123OSM   H14T13004   5.277   4.106   3.912  0.6133 -0.9554 -0.9787
  123OSM   C15S13005   5.178   4.213   4.060 -0.1775 -0.7940 -0.9035
  123OSM   H15S13006   5.092   4.143   4.051 -1.2985  0.3385  0.3666
  123OSM   H15T13007   5.138   4.315   4.081  1.2418 -0.6116  1.2943
  123OSM   C16S13008   5.261   4.161   4.189 -0.0313 -0.3852 -0.4309
  123OSM   H16S13009   5.328   4.236   4.236 -0.6309 -1.4140  2.2378
  123OSM   H16T13010   5.318   4.078   4.143 -1.0712 -0.8914 -0.8442
  123OSM   C17S13011   5.165   4.127   4.297 -0.0329 -0.1086  0.0205
  123OSM   H17S13012   5.203   4.055   4.373  1.5393  0.2284 -0.4086
  123OSM   H17T13013   5.078   4.076   4.251  0.0943  1.8898 -2.6614
  123OSM   C18S13014   5.115   4.255   4.360  0.6868 -0.3086 -0.5489
  123OSM   H18S13015   5.027   4.294   4.305 -0.4932  1.5521  2.4642
  123OSM   H18T13016   5.197   4.325   4.386  0.7723 -1.4296  2.5604
  123OSM   H18U13017   5.065   4.237   4.457 -0.5431 -0.5187 -1.1999
  123OSM    C1F13018   5.187   3.783   2.793  0.6823 -0.1006 -0.1958
  123OSM     OF13019   5.267   3.705   2.749 -0.4736  0.4301 -0.2988
  123OSM    C2F13020   5.078   3.727   2.887  0.0704  0.1807 -0.1187
  123OSM    H2F13021   5.021   3.658   2.822 -1.7413  0.7388  0.8303
  123OSM    H2G13022   5.015   3.812   2.920 -0.6718 -0.7209  0.8248
  123OSM    C3F13023   5.141   3.649   3.008  0.0779 -0.2882 -0.7579
  123OSM    H3F13024   5.180   3.724   3.080 -0.1690  0.9556 -1.8688
  123OSM    H3G13025   5.233   3.596   2.974  0.6815  0.6327 -0.6168
  123OSM    C4F13026   5.029   3.568   3.073 -0.4326  0.2848 -0.0365
  123OSM    H4F13027   5.012   3.478   3.010  0.2907 -0.4300  0.7485
  123OSM    H4G13028   4.934   3.625   3.074 -0.1269  0.8337  1.5536
  123OSM    C5F13029   5.055   3.512   3.216 -0.1813  0.2830 -0.2244
  123OSM    H5F13030   5.155   3.465   3.210 -0.1342  0.2900  0.4735
  123OSM    H5G13031   4.976   3.441   3.248  0.8363 -1.5560 -1.5373
  123OSM    C6F13032   5.081   3.624   3.316  0.2389  0.4034 -0.1508
  123OSM    H6F13033   4.991   3.689   3.328 -1.1416 -1.5867  0.9487
  123OSM    H6G13034   5.163   3.690   3.283  0.0005  0.2449 -1.0794
  123OSM    C7F13035   5.130   3.569   3.449 -0.9078 -0.2809  0.4067
  123OSM    H7F13036   5.190   3.646   3.502 -1.3775 -0.0262  0.5754
  123OSM    H7G13037   5.206   3.489   3.438 -0.4234  0.2884 -0.4590
  123OSM    C8F13038   5.016   3.526   3.542  0.2159  0.1591  0.0447
  123OSM    H8F13039   4.951   3.457   3.484  0.6398 -1.2321  1.1355
  123OSM    H8G13040   4.966   3.619   3.574  0.8166  1.3083 -2.1883
  123OSM    C9F13041   5.076   3.449   3.661 -0.0618  0.2142  0.7322
  123OSM    H9F13042   5.169   3.400   3.629  0.6986  1.6040  0.7241
  123OSM   C10F13043   5.044   3.475   3.785  0.4618  0.4764 -0.0307
  123OSM   H10F13044   5.090   3.410   3.860  1.2817 -0.4822 -1.3097
  123OSM   C11F13045   4.916   3.548   3.826  0.3645 -0.3034  0.2584
  123OSM   H11F13046   4.840   3.563   3.746  1.1808  2.4595 -0.0802
  123OSM   H11G13047   4.938   3.655   3.846 -0.4507 -0.1858  0.5615
  123OSM   C12F13048   4.852   3.493   3.954  0.3262  0.5922  0.5367
  123OSM   H12F13049   4.923   3.467   4.035  0.5352  0.1434  0.2193
  123OSM   H12G13050   4.810   3.394   3.925 -1.8500  2.2560 -2.6344
  123OSM   C13F13051   4.744   3.587   4.012 -0.2136  0.1580  0.4789
  123OSM   H13F13052   4.657   3.609   3.945  0.5377  1.4067 -0.1188
  123OSM   H13G13053   4.786   3.689   4.004 -2.3265  1.0202 -0.4779
  123OSM   C14F13054   4.700   3.556   4.147  0.5090 -0.1402  0.1804
  123OSM   H14F13055   4.786   3.579   4.215  2.1461 -1.4686 -1.3351
  123OSM   H14G13056   4.685   3.447   4.167  0.2858  0.2224  2.1959
  123OSM   C15F13057   4.570   3.626   4.178  0.1722  0.3705  0.5878
  123OSM   H15F13058   4.496   3.579   4.109  1.6265 -0.4945 -0.4430
  123OSM   H15G13059   4.593   3.731   4.150 -1.0613 -0.2319 -3.3757
  123OSM   C16F13060   4.535   3.616   4.322 -0.4517  0.1726 -0.6152
  123OSM   H16F13061   4.620   3.650   4.384 -0.0855  1.1581 -1.6337
  123OSM   H16G13062   4.506   3.513   4.352 -0.7729  0.6378  0.7597
  123OSM   C17F13063   4.414   3.708   4.353  0.7579  0.0415 -0.5664
  123OSM   H17F13064   4.335   3.683   4.278 -0.3558  1.9932 -0.1053
  123OSM   H17G13065   4.449   3.810   4.329 -0.5964  0.3028 -1.5392
  123OSM   C18F13066   4.349   3.687   4.490  0.6649 -0.0942 -0.3383
  123OSM   H18F13067   4.314   3.787   4.526 -2.5721 -1.3656  0.3759
  123OSM   H18G13068   4.414   3.639   4.566  0.4854 -0.4219 -0.3927
  123OSM   H18H13069   4.261   3.619   4.485 -0.0694  0.5525  2.1463
  124OSM      N13070   5.876   5.693   2.907  0.6910 -0.1726 -0.9262
  124OSM    C1513071   5.955   5.762   2.804 -0.7047  0.1651  0.1931
  124OSM   H15A13072   5.915   5.860   2.783 -0.4476  0.7689  2.2222
  124OSM   H15B13073   5.951   5.706   2.712  0.1738  0.3589  0.0314
  124OSM   H15C13074   6.054   5.781   2.842  0.5916 -0.2557 -2.7154
  124OSM    C1413075   5.733   5.695   2.863 -0.7391  0.2537  0.1949
  124OSM   H14A13076   5.689   5.793   2.861  0.4442  0.8006  0.0736
  124OSM   H14B13077   5.676   5.646   2.940 -1.7250  1.7837  0.4906
  124OSM   H14C13078   5.714   5.654   2.764 -1.9219 -1.7244  1.1798
  124OSM    C1313079   5.932   5.553   2.931 -0.2953 -0.0076 -0.3968
  124OSM   H13A13080   5.946   5.499   2.838  2.7023 -0.6669  0.3351
  124OSM   H13B13081   5.870   5.494   2.996  0.2883  1.2216  1.3500
  124OSM   H13C13082   6.033   5.556   2.970  0.0650  1.5144 -1.3642
  124OSM    C1213083   5.872   5.781   3.031 -0.9550  0.0756 -0.3342
  124OSM   H12A13084   5.819   5.724   3.107  3.3705 -1.6127  1.7780
  124OSM   H12B13085   5.823   5.876   3.016 -1.0754  0.1447  0.4278
  124OSM    C1113086   6.011   5.802   3.101  0.3255  0.0450  0.5329
  124OSM   H11A13087   6.072   5.709   3.100 -1.4669 -1.1854  0.0194
  124OSM   H11B13088   5.994   5.838   3.204 -0.8064 -2.4420  1.2887
  124OSM      P13089   6.048   6.051   3.039 -0.1544  0.0852  0.1527
  124OSM    O1313090   6.148   6.136   2.971 -0.1766 -0.6545  0.4616
  124OSM    O1413091   5.909   6.068   2.996 -0.3376 -0.3500 -0.2679
  124OSM    O1113092   6.049   6.076   3.198 -0.0477  0.1085 -0.2319
  124OSM    O1213093   6.092   5.897   3.021  0.3386 -0.1678 -0.8623
  124OSM    C1S13094   6.179   6.045   3.261 -0.0320  0.4553 -0.3252
  124OSM    H1S13095   6.259   6.112   3.222 -0.0518  0.5546 -0.1962
  124OSM    H1T13096   6.215   5.941   3.245  2.1109  1.1102 -0.2085
  124OSM     NF13097   6.301   6.066   3.470  0.6805 -0.0511 -1.0428
  124OSM    HNF13098   6.328   5.979   3.512 -0.2807  0.3047  0.3511
  124OSM    C2S13099   6.175   6.074   3.418  0.0686  0.6094  0.0411
  124OSM    H2S13100   6.132   6.171   3.449 -0.6689 -0.0213  1.0542
  124OSM    C3S13101   6.069   5.978   3.482  0.4909 -0.3826 -0.1384
  124OSM    H3S13102   6.096   5.870   3.490 -1.8784 -0.9022  2.4761
  124OSM     O313103   5.954   5.970   3.408 -0.1241  0.1361 -0.0961
  124OSM    HO313104   5.962   6.026   3.331 -0.3547  0.7748  0.3374
  124OSM    C4S13105   6.038   6.007   3.627 -0.1592 -0.2514  0.0997
  124OSM    H4S13106   6.013   6.113   3.641 -0.2836 -0.3031  0.2673
  124OSM    C5S13107   6.038   5.932   3.739  0.0769 -0.6124 -0.6389
  124OSM    H5S13108   6.069   5.827   3.747 -0.4950 -0.6644  5.2084
  124OSM    C6S13109   5.975   5.974   3.878  0.3931  0.3691 -0.1221
  124OSM    H6S13110   5.865   5.980   3.883  0.4646  1.0370  1.6655
  124OSM    H6T13111   6.020   6.073   3.904  0.8361  0.4509 -1.1587
  124OSM    C7S13112   6.006   5.873   3.991  0.1233 -0.1918  0.5162
  124OSM    H7S13113   6.114   5.848   3.979  0.0723 -0.6391  0.9634
  124OSM    H7T13114   5.947   5.779   3.995 -0.8830  0.4463  0.9449
  124OSM    C8S13115   5.989   5.951   4.133  0.1328 -0.1048  0.7684
  124OSM    H8S13116   5.889   5.997   4.138  0.6560  1.1477  0.1055
  124OSM    H8T13117   6.060   6.035   4.151 -3.3653  2.6754  2.9567
  124OSM    C9S13118   6.023   5.850   4.241  0.1306 -0.2937  0.2978
  124OSM    H9S13119   6.108   5.796   4.194 -1.6514 -0.0272 -3.5858
  124OSM    H9T13120   5.935   5.782   4.252 -1.8173  1.9939 -0.5009
  124OSM   C10S13121   6.059   5.900   4.390 -0.1840 -0.2815  0.5733
  124OSM   H10S13122   5.984   5.978   4.411 -1.6764 -1.0901 -1.4011
  124OSM   H10T13123   6.157   5.949   4.378 -1.2601  1.9190  0.3620
  124OSM   C11S13124   6.072   5.799   4.504 -0.3790  0.2802 -0.1297
  124OSM   H11S13125   6.159   5.733   4.482  0.0364  1.1886 -1.3085
  124OSM   H11T13126   5.982   5.734   4.504  0.3929 -0.8435 -1.7168
  124OSM   C12S13127   6.092   5.869   4.642  0.2183 -0.3372  0.0359
  124OSM   H12S13128   6.009   5.942   4.649 -1.1662 -1.7921 -0.5936
  124OSM   H12T13129   6.184   5.932   4.640  0.6925 -1.0018  0.3843
  124OSM   C13S13130   6.105   5.777   4.761  1.0723  0.4923  0.5716
  124OSM   H13S13131   6.201   5.726   4.740  0.3137  0.9154 -5.7383
  124OSM   H13T13132   6.017   5.712   4.782  1.2663  0.5042  1.4761
  124OSM   C14S13133   6.126   5.854   4.894 -0.1674 -0.1048  0.5525
  124OSM   H14S13134   6.045   5.928   4.911 -0.3030  0.4009 -1.9137
  124OSM   H14T13135   6.215   5.917   4.873 -1.2578  0.5182 -2.9329
  124OSM   C15S13136   6.120   5.758   5.018  0.1470 -0.3578  0.2514
  124OSM   H15S13137   6.189   5.674   4.999  1.6745  0.2909  2.5009
  124OSM   H15T13138   6.015   5.721   5.028 -0.0901  0.3189  0.3951
  124OSM   C16S13139   6.164   5.834   5.146  0.1574 -0.0930 -0.1412
  124OSM   H16S13140   6.085   5.906   5.176  0.5458  0.2479  0.0665
  124OSM   H16T13141   6.257   5.894   5.133 -0.8371  1.6883  0.5538
  124OSM   C17S13142   6.160   5.735   5.261  0.2635  0.2085  0.6522
  124OSM   H17S13143   6.231   5.656   5.227  2.2050  2.2386 -0.3116
  124OSM   H17T13144   6.054   5.708   5.278 -0.1770  0.9091 -0.8538
  124OSM   C18S13145   6.222   5.791   5.390  0.0126 -0.2751 -0.5493
  124OSM   H18S13146   6.150   5.864   5.433  1.7835 -0.0355  2.2839
  124OSM   H18T13147   6.322   5.835   5.370  0.8329 -0.4843  2.4944
  124OSM   H18U13148   6.231   5.712   5.468 -3.2770  1.8775  2.2991
  124OSM    C1F13149   6.405   6.146   3.448 -0.3145  0.4774  0.8058
  124OSM     OF13150   6.395   6.245   3.372  0.0628  0.2957 -0.3547
  124OSM    C2F13151   6.534   6.098   3.507  0.8713  0.1973  0.0485
  124OSM    H2F13152   6.594   6.185   3.540  1.4128  0.1056 -0.6566
  124OSM    H2G13153   6.599   6.042   3.436  0.9902 -1.9417  1.7269
  124OSM    C3F13154   6.526   6.010   3.637 -0.4777  0.8340  0.4678
  124OSM    H3F13155   6.630   5.972   3.649 -0.4261 -0.1969 -2.3467
  124OSM    H3G13156   6.469   5.918   3.610 -2.2773  3.0645 -4.4290
  124OSM    C4F13157   6.467   6.078   3.761 -0.1071 -0.6831 -0.6471
  124OSM    H4F13158   6.361   6.109   3.757 -0.4902 -1.5643  1.4191
  124OSM    H4G13159   6.529   6.170   3.775 -1.0117 -0.3187  1.1925
  124OSM    C5F13160   6.486   5.998   3.892 -0.3743  0.6555 -0.4725
  124OSM    H5F13161   6.583   5.947   3.909 -0.8592 -0.4098 -0.7459
  124OSM    H5G13162   6.420   5.908   3.891  2.2269 -1.4465  1.6588
  124OSM    C6F13163   6.456   6.087   4.014 -0.3910 -0.4914 -0.1934
  124OSM    H6F13164   6.353   6.127   4.027  0.6286  1.9032  1.3866
  124OSM    H6G13165   6.523   6.172   3.987 -2.5094  0.8614 -1.4670
  124OSM    C7F13166   6.494   6.029   4.153 -0.0365 -0.0008  0.2140
  124OSM    H7F13167   6.538   6.112   4.212  2.9164 -1.0285 -0.3593
  124OSM    H7G13168   6.576   5.954   4.148  0.2257  0.2815  0.2247
  124OSM    C8F13169   6.373   5.984   4.232  0.4003  0.2083 -0.2711
  124OSM    H8F13170   6.329   5.899   4.175  0.9522  0.1214 -0.5777
  124OSM    H8G13171   6.301   6.067   4.221  0.3336  0.4084  1.3541
  124OSM    C9F13172   6.408   5.954   4.381  0.0683  0.4303  0.0863
  124OSM    H9F13173   6.452   5.856   4.407  0.6691  0.2026 -1.6469
  124OSM   C10F13174   6.391   6.042   4.480 -0.2865  0.0870  0.2433
  124OSM   H10F13175   6.403   6.001   4.581 -0.3683 -0.2013  0.1381
  124OSM   C11F13176   6.333   6.186   4.478  0.3934  0.7621 -0.1137
  124OSM   H11F13177   6.245   6.184   4.546  1.4433  2.3391  1.3719
  124OSM   H11G13178   6.298   6.217   4.377  0.1922  0.9300  0.0059
  124OSM   C12F13179   6.426   6.296   4.532 -0.1736  0.0083 -0.3089
  124OSM   H12F13180   6.449   6.262   4.635  1.5549 -0.9177 -0.9492
  124OSM   H12G13181   6.370   6.392   4.530 -2.8993 -1.5054  0.1736
  124OSM   C13F13182   6.551   6.307   4.447 -0.6924 -0.4113  0.0416
  124OSM   H13F13183   6.523   6.328   4.341 -1.3611 -0.2288  0.2537
  124OSM   H13G13184   6.608   6.212   4.457 -1.9234 -1.1970 -0.1918
  124OSM   C14F13185   6.645   6.414   4.501  0.1133 -0.6193 -0.4180
  124OSM   H14F13186   6.595   6.513   4.501 -0.2295 -0.7780  0.7929
  124OSM   H14G13187   6.730   6.427   4.430  0.2657  0.8763  0.0131
  124OSM   C15F13188   6.705   6.390   4.641 -0.8798 -0.4310  0.1204
  124OSM   H15F13189   6.789   6.318   4.639 -1.8209 -1.5275 -1.6900
  124OSM   H15G13190   6.625   6.345   4.703  0.1419 -1.0069  1.0542
  124OSM   C16F13191   6.763   6.515   4.713 -0.6176  0.5010  0.1923
  124OSM   H16F13192   6.708   6.611   4.699 -0.0716  0.7106 -0.6197
  124OSM   H16G13193   6.873   6.509   4.699 -0.2263 -3.6479  3.4090
  124OSM   C17F13194   6.754   6.494   4.861 -0.3197  0.4131 -0.0782
  124OSM   H17F13195   6.796   6.398   4.897  2.1123  1.8340  1.1291
  124OSM   H17G13196   6.648   6.483   4.893  0.5020  0.9330  3.2015
  124OSM   C18F13197   6.815   6.606   4.946  0.1556  0.3385 -0.3232
  124OSM   H18F13198   6.817   6.572   5.051 -0.1879  1.1603 -0.0443
  124OSM   H18G13199   6.752   6.697   4.948  0.1654  0.3485  1.9023
  124OSM   H18H13200   6.918   6.634   4.913  0.6971 -1.3144 -0.1036
  125OSM      N13201   0.793   2.714   2.309 -0.0585  0.7350 -0.1331
  125OSM    C1513202   0.688   2.634   2.374  0.1636  0.4889 -0.3022
  125OSM   H15A13203   0.677   2.664   2.477 -1.1337 -0.2718 -0.2057
  125OSM   H15B13204   0.709   2.528   2.367 -0.4793  0.4002 -0.9948
  125OSM   H15C13205   0.592   2.644   2.326  0.3190 -0.1921 -0.7697
  125OSM    C1413206   0.790   2.677   2.165 -0.0656  0.3884  0.0116
  125OSM   H14A13207   0.836   2.581   2.148  0.9218  1.0669 -1.3035
  125OSM   H14B13208   0.838   2.758   2.112  1.4056 -0.1466  0.4831
  125OSM   H14C13209   0.695   2.667   2.115  0.8812 -0.3507 -1.7118
  125OSM    C1313210   0.768   2.864   2.323 -0.1609  0.8900 -0.3119
  125OSM   H13A13211   0.860   2.916   2.302  0.3469 -0.0986 -0.5978
  125OSM   H13B13212   0.735   2.887   2.423 -1.1527 -2.0500  0.1265
  125OSM   H13C13213   0.699   2.896   2.246  2.2291 -1.9170 -3.9906
  125OSM    C1213214   0.933   2.676   2.367 -0.8694 -0.3548  0.8557
  125OSM   H12A13215   0.947   2.570   2.382  2.8204  0.2528  2.9286
  125OSM   H12B13216   0.929   2.710   2.470  0.7484 -1.2665  1.2610
  125OSM    C1113217   1.056   2.744   2.302  0.1080 -0.2506 -0.2008
  125OSM   H11A13218   1.049   2.703   2.199 -2.1402  1.9913 -1.0359
  125OSM   H11B13219   1.147   2.693   2.340 -0.5145 -0.8689  0.5189
  125OSM      P13220   1.115   2.957   2.423  0.1634 -0.2771  0.3395
  125OSM    O1313221   1.263   2.925   2.424  0.0708 -0.2671 -0.0756
  125OSM    O1413222   1.070   3.097   2.416  0.0039  0.0284 -0.5170
  125OSM    O1113223   1.053   2.887   2.551 -0.3710 -0.3398  0.5732
  125OSM    O1213224   1.056   2.884   2.300  0.2924  0.1263 -0.1510
  125OSM    C1S13225   1.137   2.906   2.667  0.7621 -0.6689 -0.1054
  125OSM    H1S13226   1.182   3.007   2.678 -0.4317 -0.3327  2.4816
  125OSM    H1T13227   1.219   2.833   2.677  1.1768 -0.1778  0.1336
  125OSM     NF13228   1.125   2.931   2.914 -0.3049 -0.0378 -0.3718
  125OSM    HNF13229   1.144   2.851   2.970 -1.5699  0.5079  0.9149
  125OSM    C2S13230   1.047   2.897   2.797 -0.1442 -0.2203  0.3292
  125OSM    H2S13231   0.968   2.975   2.787  1.5353  1.3101 -2.1766
  125OSM    C3S13232   0.976   2.762   2.809 -0.5184  0.3231 -0.2802
  125OSM    H3S13233   1.052   2.681   2.802 -1.6518 -0.8403  0.3807
  125OSM     O313234   0.887   2.732   2.702  0.1096 -0.1134 -0.8015
  125OSM    HO313235   0.902   2.804   2.640 -1.8278  2.8486  1.8570
  125OSM    C4S13236   0.910   2.744   2.938  0.6079  0.2216 -0.1665
  125OSM    H4S13237   0.823   2.807   2.958  1.2229  0.8795  0.5013
  125OSM    C5S13238   0.939   2.653   3.030  0.1832 -0.6431  0.3501
  125OSM    H5S13239   1.017   2.578   3.010  0.2077 -0.4534 -0.2860
  125OSM    C6S13240   0.879   2.657   3.167 -0.2921  0.2622  0.7751
  125OSM    H6S13241   0.792   2.587   3.160  0.9568 -1.1535 -1.8189
  125OSM    H6T13242   0.831   2.756   3.188  1.1970  1.6979 -2.0890
  125OSM    C7S13243   0.983   2.603   3.268  0.1321 -0.0528  0.3860
  125OSM    H7S13244   1.062   2.679   3.287  1.9640 -1.4395 -1.2460
  125OSM    H7T13245   1.028   2.503   3.248  1.1987  0.5543 -0.3369
  125OSM    C8S13246   0.912   2.579   3.399  0.0816 -0.4172 -0.5831
  125OSM    H8S13247   0.844   2.492   3.389  0.6216 -0.8629 -0.4029
  125OSM    H8T13248   0.854   2.671   3.423  1.7032  0.5056  0.0025
  125OSM    C9S13249   1.015   2.546   3.506  0.0098 -0.3659  0.5574
  125OSM    H9S13250   1.077   2.637   3.523 -0.2297  0.3414 -2.0209
  125OSM    H9T13251   1.075   2.462   3.463 -0.8131  0.2672 -1.9756
  125OSM   C10S13252   0.943   2.497   3.630 -0.6596  0.0781  0.0785
  125OSM   H10S13253   0.866   2.418   3.613 -1.1057 -0.1647  2.7794
  125OSM   H10T13254   0.898   2.578   3.691 -0.2203  0.0673  0.4200
  125OSM   C11S13255   1.034   2.431   3.733  0.2760  0.1794  0.0875
  125OSM   H11S13256   1.097   2.512   3.775  0.5718 -0.3099  0.5935
  125OSM   H11T13257   1.102   2.361   3.682  2.2510  2.4495 -0.5948
  125OSM   C12S13258   0.964   2.362   3.852  0.3116 -0.2202 -0.2289
  125OSM   H12S13259   0.886   2.293   3.812 -2.0080  1.3072  1.3913
  125OSM   H12T13260   0.897   2.429   3.910 -0.6762  0.3227 -1.9147
  125OSM   C13S13261   1.062   2.292   3.940  1.1726  0.2358 -0.5400
  125OSM   H13S13262   1.148   2.358   3.965  2.2771 -0.8217 -1.4625
  125OSM   H13T13263   1.104   2.195   3.905  0.6781 -0.9291  1.8616
  125OSM   C14S13264   0.994   2.244   4.074 -0.2100 -0.2083  0.0773
  125OSM   H14S13265   0.897   2.190   4.063 -0.7824  1.2046 -2.5298
  125OSM   H14T13266   0.993   2.340   4.131  0.9185 -0.1271 -0.0166
  125OSM   C15S13267   1.093   2.164   4.162 -0.5544  0.3166  0.9916
  125OSM   H15S13268   1.193   2.210   4.168 -0.5247  0.4003 -0.0940
  125OSM   H15T13269   1.121   2.072   4.106  1.5950  1.0670  0.7384
  125OSM   C16S13270   1.036   2.128   4.299 -0.3141 -0.0852 -0.0275
  125OSM   H16S13271   0.948   2.065   4.274  0.0137 -0.5422 -0.0437
  125OSM   H16T13272   0.998   2.219   4.350 -1.2945 -0.1369 -0.6485
  125OSM   C17S13273   1.128   2.042   4.385  0.0561  0.7200 -0.5111
  125OSM   H17S13274   1.225   2.095   4.399 -1.0249  2.4977  0.7693
  125OSM   H17T13275   1.150   1.944   4.337 -0.2525  0.3587  0.0764
  125OSM   C18S13276   1.065   2.017   4.525  0.3310  0.0975 -0.6677
  125OSM   H18S13277   0.962   1.975   4.523  0.2739  0.1903  0.0743
  125OSM   H18T13278   1.048   2.114   4.576 -2.3588 -1.1518  1.0715
  125OSM   H18U13279   1.119   1.940   4.584 -1.5619  0.6584  2.0179
  125OSM    C1F13280   1.176   3.053   2.953  0.2866  0.6489  0.4708
  125OSM     OF13281   1.155   3.149   2.882  0.4915  0.1799  0.1097
  125OSM    C2F13282   1.260   3.060   3.078  0.1710  0.2001  0.1911
  125OSM    H2F13283   1.344   3.129   3.055  1.4373 -0.3466  2.7621
  125OSM    H2G13284   1.301   2.962   3.111  1.3555  1.0247  1.2553
  125OSM    C3F13285   1.176   3.122   3.185  0.1530 -0.0133 -0.3303
  125OSM    H3F13286   1.142   3.222   3.152 -0.2365  0.1346  0.5162
  125OSM    H3G13287   1.254   3.141   3.261 -0.1887  0.7646 -0.1707
  125OSM    C4F13288   1.061   3.043   3.258 -0.3626  0.3557  0.4203
  125OSM    H4F13289   1.091   2.947   3.306 -1.5908 -0.4740 -0.4117
  125OSM    H4G13290   0.983   3.019   3.183 -0.6928 -2.0245  1.4407
  125OSM    C5F13291   0.993   3.127   3.360  0.8573  0.3825 -0.1291
  125OSM    H5F13292   0.931   3.202   3.305  1.1570 -0.5788 -1.8679
  125OSM    H5G13293   1.067   3.176   3.425  1.5840 -3.7860  2.5431
  125OSM    C6F13294   0.909   3.052   3.463 -0.2683  0.0234 -0.3830
  125OSM    H6F13295   0.847   2.974   3.413  0.3862 -0.6615 -0.1382
  125OSM    H6G13296   0.843   3.130   3.507  1.2152  0.2673  1.5426
  125OSM    C7F13297   0.988   2.979   3.573  0.0872  0.0712 -0.2651
  125OSM    H7F13298   1.040   3.051   3.640 -0.6353  0.2216  0.1473
  125OSM    H7G13299   1.052   2.906   3.521 -0.3105  0.8634 -1.9173
  125OSM    C8F13300   0.901   2.882   3.661  0.3869  0.3513  0.5042
  125OSM    H8F13301   0.970   2.816   3.718  2.5824 -0.4391 -2.8092
  125OSM    H8G13302   0.843   2.810   3.600 -0.0616  1.0446  0.0965
  125OSM    C9F13303   0.806   2.957   3.747 -0.3265  0.0022  0.7729
  125OSM    H9F13304   0.728   3.011   3.692  0.8044  0.0515 -0.8547
  125OSM   C10F13305   0.813   2.996   3.872 -0.2682  0.2641 -0.1352
  125OSM   H10F13306   0.739   3.065   3.914 -0.8498 -0.9966  0.9667
  125OSM   C11F13307   0.920   2.939   3.965  0.4106 -0.2873  0.6050
  125OSM   H11F13308   1.020   2.965   3.925 -0.6425  1.7147 -0.9068
  125OSM   H11G13309   0.900   2.830   3.969 -1.4639  0.0367  1.1259
  125OSM   C12F13310   0.905   2.967   4.116 -0.2360 -1.0340 -0.2083
  125OSM   H12F13311   0.966   2.904   4.185  1.3972 -1.1442 -1.6959
  125OSM   H12G13312   0.801   2.962   4.158  0.2446 -0.9391  1.0486
  125OSM   C13F13313   0.946   3.111   4.128 -0.2510 -0.6102 -0.3459
  125OSM   H13F13314   0.896   3.181   4.059  1.8526 -1.1097 -2.5261
  125OSM   H13G13315   1.057   3.117   4.117 -0.2737  0.1711 -0.1974
  125OSM   C14F13316   0.916   3.154   4.266  0.5197 -1.0110 -0.3289
  125OSM   H14F13317   0.942   3.072   4.336  1.6287 -1.6793 -1.4826
  125OSM   H14G13318   0.806   3.164   4.271  0.6098  0.9773 -1.1688
  125OSM   C15F13319   0.982   3.288   4.296  0.3461 -1.0927  0.1359
  125OSM   H15F13320   0.961   3.364   4.218  1.4080  0.2229  1.0815
  125OSM   H15G13321   1.090   3.264   4.290  0.5996 -0.6679  2.1547
  125OSM   C16F13322   0.944   3.334   4.437  0.2695  0.4838  0.6397
  125OSM   H16F13323   0.974   3.253   4.506  1.5419  1.0307  0.7585
  125OSM   H16G13324   0.833   3.332   4.442  0.2771 -0.2016  0.5421
  125OSM   C17F13325   1.001   3.461   4.498 -0.2288  0.8291 -0.4027
  125OSM   H17F13326   1.110   3.462   4.479  0.0429 -2.0307  0.3911
  125OSM   H17G13327   0.986   3.447   4.608  0.1515 -0.1237 -0.4575
  125OSM   C18F13328   0.926   3.590   4.458 -0.7352  0.3681 -0.1100
  125OSM   H18F13329   0.935   3.674   4.531  0.7903  0.1624 -0.0330
  125OSM   H18G13330   0.818   3.569   4.440 -0.7334  1.3358 -1.4188
  125OSM   H18H13331   0.957   3.630   4.359 -1.6039  4.4820  1.0808
  126OSM      N13332   0.085   2.831   2.285  0.0111 -0.7471  0.5416
  126OSM    C1513333   0.201   2.900   2.225 -0.1877 -0.5675  0.0878
  126OSM   H15A13334   0.255   2.847   2.148  0.8516  0.8101 -0.1783
  126OSM   H15B13335   0.270   2.928   2.304  0.1675 -0.8179 -0.1324
  126OSM   H15C13336   0.160   2.988   2.177  0.8735  0.2989  0.7414
  126OSM    C1413337  -0.015   2.816   2.181 -0.0945  0.6511  0.2390
  126OSM   H14A13338   0.016   2.736   2.116  0.3781 -0.7223  2.0722
  126OSM   H14B13339  -0.020   2.913   2.132 -0.6095  0.4624 -0.0890
  126OSM   H14C13340  -0.110   2.799   2.230  0.1342  0.1098  0.5013
  126OSM    C1313341   0.123   2.689   2.322 -0.2474  0.1746 -0.4072
  126OSM   H13A13342   0.156   2.632   2.236  0.8404  0.9129 -0.5039
  126OSM   H13B13343   0.036   2.644   2.366 -0.9517  1.3345 -0.5682
  126OSM   H13C13344   0.202   2.692   2.396  1.3008  1.3157 -2.0383
  126OSM    C1213345   0.030   2.910   2.408 -0.1201  0.3248  0.0351
  126OSM   H12A13346   0.012   3.011   2.374  0.5559  0.5323  0.2773
  126OSM   H12B13347   0.111   2.918   2.479 -1.0246  1.7192  0.9594
  126OSM    C1113348  -0.096   2.859   2.480  0.0142 -0.0369  0.3188
  126OSM   H11A13349  -0.108   2.913   2.576  2.6522 -1.2916  1.4402
  126OSM   H11B13350  -0.082   2.749   2.495 -0.3466 -0.0564  0.5211
  126OSM      P13351  -0.273   3.023   2.403  0.1191 -0.0398 -0.0762
  126OSM    O1313352  -0.173   3.121   2.367  0.8156 -0.5675  0.3638
  126OSM    O1413353  -0.394   3.032   2.319  0.0053 -0.2462  0.4340
  126OSM    O1113354  -0.317   3.041   2.553 -0.5223 -0.2644  0.5322
  126OSM    O1213355  -0.210   2.882   2.396  0.7257  0.3380  0.3882
  126OSM    C1S13356  -0.420   2.957   2.601  0.2235 -0.1248  0.1545
  126OSM    H1S13357  -0.376   2.878   2.665  1.5814 -0.3469 -0.9962
  126OSM    H1T13358  -0.478   2.911   2.518  0.5769 -1.2964  0.5393
  126OSM     NF13359  -0.603   2.929   2.761 -0.2907 -0.0273 -0.7411
  126OSM    HNF13360  -0.698   2.918   2.735 -0.2648 -1.9224 -0.2296
  126OSM    C2S13361  -0.517   3.027   2.708  0.0323 -0.1594  0.5618
  126OSM    H2S13362  -0.453   3.057   2.794  2.8391 -1.7389 -0.8545
  126OSM    C3S13363  -0.584   3.153   2.647 -0.0549 -0.8360 -0.5096
  126OSM    H3S13364  -0.631   3.111   2.556  1.3429 -0.3317 -1.4965
  126OSM     O313365  -0.484   3.253   2.632 -0.4046 -0.2071  0.0603
  126OSM    HO313366  -0.401   3.205   2.627 -0.7480 -0.7806 -0.2001
  126OSM    C4S13367  -0.696   3.217   2.729  0.5475  0.1241 -0.0370
  126OSM    H4S13368  -0.789   3.160   2.718  1.3581 -1.2905  0.1090
  126OSM    C5S13369  -0.691   3.307   2.824  0.3416 -0.6223 -0.2675
  126OSM    H5S13370  -0.593   3.352   2.846  0.3977 -0.4711 -0.8049
  126OSM    C6S13371  -0.805   3.342   2.915  0.1884 -0.6716 -0.2205
  126OSM    H6S13372  -0.893   3.274   2.903 -0.0899 -0.2234 -0.7812
  126OSM    H6T13373  -0.831   3.449   2.902  0.5660 -0.4232  0.9266
  126OSM    C7S13374  -0.764   3.337   3.062 -0.5119 -0.2258 -0.1221
  126OSM    H7S13375  -0.682   3.407   3.088 -2.0588  2.4264 -1.8515
  126OSM    H7T13376  -0.733   3.236   3.098 -0.6320 -0.1957  0.0670
  126OSM    C8S13377  -0.885   3.384   3.147  0.1165  0.1375 -0.1473
  126OSM    H8S13378  -0.975   3.322   3.128  0.3177  0.0401 -0.8411
  126OSM    H8T13379  -0.921   3.483   3.111 -1.1077 -0.3554 -0.2918
  126OSM    C9S13380  -0.837   3.377   3.290  0.0907  0.3935  0.0373
  126OSM    H9S13381  -0.744   3.436   3.305  0.0534  0.8744 -1.4832
  126OSM    H9T13382  -0.812   3.270   3.306 -1.3306 -0.2203 -1.5541
  126OSM   C10S13383  -0.942   3.418   3.394 -0.4018 -0.1175  0.1137
  126OSM   H10S13384  -1.030   3.349   3.390 -0.5013 -0.0284  0.6554
  126OSM   H10T13385  -0.971   3.523   3.371  0.4719  0.4101  1.3699
  126OSM   C11S13386  -0.872   3.426   3.531  0.6391  0.0735  0.3778
  126OSM   H11S13387  -0.792   3.504   3.531 -0.1935  1.0095 -1.6452
  126OSM   H11T13388  -0.825   3.330   3.561  0.0019  0.6326  3.4802
  126OSM   C12S13389  -0.966   3.433   3.651 -0.8141  0.0584  0.0765
  126OSM   H12S13390  -1.031   3.343   3.652 -0.7936  0.0433  0.0621
  126OSM   H12T13391  -1.026   3.526   3.643  1.3452  1.5121 -0.1760
  126OSM   C13S13392  -0.895   3.426   3.789 -0.5412 -0.1122 -0.1779
  126OSM   H13S13393  -0.816   3.504   3.802  0.8853 -1.6610  0.9427
  126OSM   H13T13394  -0.834   3.333   3.793  0.1264  0.3189 -0.0538
  126OSM   C14S13395  -0.992   3.442   3.908  0.6559  0.8902 -0.3016
  126OSM   H14S13396  -1.056   3.354   3.887  1.3397 -0.3514  2.3866
  126OSM   H14T13397  -1.050   3.536   3.894 -2.8680 -0.8387  1.3176
  126OSM   C15S13398  -0.934   3.434   4.049 -0.3360 -0.4764  0.5182
  126OSM   H15S13399  -0.857   3.510   4.075 -1.4549  0.9918 -0.3071
  126OSM   H15T13400  -0.885   3.334   4.058 -0.6257 -0.6968 -0.2938
  126OSM   C16S13401  -1.046   3.446   4.159  0.1020 -0.0231  0.3548
  126OSM   H16S13402  -1.128   3.374   4.138  0.3113  0.2348 -1.5546
  126OSM   H16T13403  -1.085   3.548   4.142 -0.0566 -0.4375 -2.2404
  126OSM   C17S13404  -0.995   3.429   4.305 -0.1442 -0.3596  0.2859
  126OSM   H17S13405  -0.887   3.458   4.310 -0.2733  0.0221  1.1032
  126OSM   H17T13406  -0.986   3.320   4.326  1.8513 -0.7136 -1.9534
  126OSM   C18S13407  -1.084   3.501   4.415 -0.1214 -0.0424  0.5679
  126OSM   H18S13408  -1.042   3.496   4.518  0.2174 -1.9817  0.3720
  126OSM   H18T13409  -1.185   3.455   4.414 -0.7148  1.2202  0.2413
  126OSM   H18U13410  -1.097   3.609   4.392 -1.2498 -0.3490 -0.3653
  126OSM    C1F13411  -0.572   2.829   2.844 -0.4552  0.1403 -0.6026
  126OSM     OF13412  -0.453   2.831   2.888 -0.2009  0.2386  0.3827
  126OSM    C2F13413  -0.680   2.731   2.887  0.3229  0.2216 -1.0670
  126OSM    H2F13414  -0.666   2.629   2.844 -0.9059 -0.5136  0.1868
  126OSM    H2G13415  -0.784   2.769   2.880  0.3968  0.7970  0.4594
  126OSM    C3F13416  -0.658   2.719   3.039  0.2485  0.6323 -0.8964
  126OSM    H3F13417  -0.683   2.811   3.097 -1.2410 -0.8805  1.0210
  126OSM    H3G13418  -0.550   2.697   3.057  0.0817  0.1171 -0.4952
  126OSM    C4F13419  -0.752   2.618   3.119 -0.2044 -0.6885  0.0071
  126OSM    H4F13420  -0.723   2.517   3.082  0.8540 -0.1104 -0.7857
  126OSM    H4G13421  -0.857   2.644   3.098  0.3339  2.1389  0.4260
  126OSM    C5F13422  -0.724   2.615   3.270  0.1488  0.0502 -0.0652
  126OSM    H5F13423  -0.726   2.721   3.304  0.3577 -0.1708  0.6681
  126OSM    H5G13424  -0.620   2.579   3.284  0.8793  1.5275 -1.4986
  126OSM    C6F13425  -0.833   2.529   3.341 -0.4138  0.4781  0.1446
  126OSM    H6F13426  -0.838   2.436   3.281 -1.8305  0.7168 -0.1409
  126OSM    H6G13427  -0.924   2.584   3.374  0.8581  0.6887  3.8603
  126OSM    C7F13428  -0.775   2.476   3.467  0.0705 -0.1135  0.4956
  126OSM    H7F13429  -0.763   2.560   3.539 -2.4007 -0.0432  0.9276
  126OSM    H7G13430  -0.674   2.432   3.452 -0.0078 -0.5570  1.2154
  126OSM    C8F13431  -0.869   2.377   3.545  0.5634  0.4772 -0.0344
  126OSM    H8F13432  -0.874   2.282   3.488  0.7581 -1.9237  3.6414
  126OSM    H8G13433  -0.969   2.425   3.542 -0.0480 -0.7945 -2.3103
  126OSM    C9F13434  -0.811   2.324   3.672  0.3143 -0.1483 -0.4267
  126OSM    H9F13435  -0.706   2.293   3.668  0.2211 -0.6270  0.6289
  126OSM   C10F13436  -0.861   2.328   3.792  0.2681  0.4134 -1.0080
  126OSM   H10F13437  -0.796   2.276   3.864 -1.0585  0.1475  0.0586
  126OSM   C11F13438  -1.006   2.368   3.838  1.0528  0.8973  0.4143
  126OSM   H11F13439  -1.078   2.283   3.832  0.7938  1.1619 -0.4506
  126OSM   H11G13440  -1.048   2.442   3.767  0.5004  1.3874  1.2387
  126OSM   C12F13441  -1.016   2.411   3.982 -0.8198 -1.2383 -0.6973
  126OSM   H12F13442  -1.114   2.462   3.993 -0.4472 -0.6111 -0.2164
  126OSM   H12G13443  -0.934   2.484   3.996 -1.7066 -0.4912  0.9086
  126OSM   C13F13444  -1.007   2.300   4.082 -0.1563  0.0527 -0.4295
  126OSM   H13F13445  -0.936   2.220   4.054 -1.3784 -1.2680  0.1067
  126OSM   H13G13446  -1.108   2.254   4.074 -1.0872  2.0524 -0.8573
  126OSM   C14F13447  -0.965   2.355   4.223  0.4888  0.6616  0.3744
  126OSM   H14F13448  -0.870   2.412   4.208  0.9917  0.4967  2.5442
  126OSM   H14G13449  -0.950   2.278   4.302 -1.2603  0.9309  1.0157
  126OSM   C15F13450  -1.069   2.457   4.278  0.7660 -0.5745  0.3468
  126OSM   H15F13451  -1.165   2.402   4.282 -1.3397  2.4581 -2.5907
  126OSM   H15G13452  -1.084   2.536   4.202 -0.6221 -1.9666 -0.9094
  126OSM   C16F13453  -1.029   2.512   4.412  0.3080  0.2085 -0.8702
  126OSM   H16F13454  -1.032   2.441   4.497  0.1938  1.3402  0.0999
  126OSM   H16G13455  -1.089   2.602   4.437  1.3130  0.3964  1.0795
  126OSM   C17F13456  -0.886   2.552   4.430 -0.5160 -0.2808 -0.0140
  126OSM   H17F13457  -0.862   2.626   4.351  1.7085  1.1675  1.9109
  126OSM   H17G13458  -0.816   2.466   4.418 -0.7884 -0.4596 -0.3414
  126OSM   C18F13459  -0.857   2.619   4.565 -0.6388  0.8543 -0.3774
  126OSM   H18F13460  -0.858   2.547   4.650  3.1086  0.4220 -0.5198
  126OSM   H18G13461  -0.927   2.701   4.588 -0.3816  0.9482  0.0789
  126OSM   H18H13462  -0.752   2.655   4.572  0.3608 -2.0693  2.4647
  127OSM      N13463   5.822   4.483   2.177 -0.0504 -0.4249 -0.2708
  127OSM    C1513464   5.962   4.532   2.136  0.1875  0.3289  0.5733
  127OSM   H15A13465   6.021   4.445   2.112 -0.5862 -0.5889  1.8645
  127OSM   H15B13466   6.011   4.579   2.221  0.2173  0.7609  0.3231
  127OSM   H15C13467   5.959   4.598   2.051 -0.6424 -1.0025 -0.4706
  127OSM    C1413468   5.729   4.603   2.178  0.0370 -0.1477  0.4493
  127OSM   H14A13469   5.625   4.579   2.189  0.1068  0.5675  3.3666
  127OSM   H14B13470   5.735   4.654   2.083 -2.2954  0.5740  0.6444
  127OSM   H14C13471   5.742   4.673   2.259 -1.3427  2.4404 -1.4189
  127OSM    C1313472   5.786   4.391   2.065  0.0767  0.2043  0.2448
  127OSM   H13A13473   5.863   4.316   2.061  2.0168  2.1383 -0.3112
  127OSM   H13B13474   5.796   4.440   1.970  3.3678 -0.6005  0.0667
  127OSM   H13C13475   5.688   4.346   2.070  0.0197  0.0229 -1.7279
  127OSM    C1213476   5.831   4.408   2.310 -0.5355  0.4017 -0.7223
  127OSM   H12A13477   5.904   4.329   2.295 -1.3368 -0.8981  1.7286
  127OSM   H12B13478   5.731   4.375   2.333 -1.1694  0.4249 -3.1663
  127OSM    C1113479   5.890   4.489   2.431  0.1155  0.1400 -0.7278
  127OSM   H11A13480   5.871   4.441   2.529 -0.3528 -0.2329 -0.9999
  127OSM   H11B13481   5.832   4.584   2.434  0.0602  0.1043 -0.6500
  127OSM      P13482   6.133   4.410   2.437 -0.0974  0.0848 -0.0633
  127OSM    O1313483   6.077   4.284   2.389  0.0929  0.0409 -0.3147
  127OSM    O1413484   6.259   4.448   2.376 -0.0532  0.0205 -0.0636
  127OSM    O1113485   6.165   4.412   2.587 -0.8482  0.0794  0.2356
  127OSM    O1213486   6.029   4.524   2.414 -0.5111  0.9775 -0.3560
  127OSM    C1S13487   6.084   4.345   2.685  0.5475  0.0699  0.7192
  127OSM    H1S13488   6.016   4.276   2.629  3.5897 -1.7824 -0.9698
  127OSM    H1T13489   6.029   4.411   2.755 -1.6550 -0.7251 -0.1626
  127OSM     NF13490   6.047   4.186   2.858 -0.0578 -0.5154  0.5367
  127OSM    HNF13491   6.015   4.229   2.942 -0.1353  0.1957  0.1420
  127OSM    C2S13492   6.155   4.250   2.786  0.2803  0.4325 -0.1145
  127OSM    H2S13493   6.217   4.174   2.733  1.1482 -0.8046  2.5070
  127OSM    C3S13494   6.247   4.344   2.870 -0.1066  0.1734  0.5223
  127OSM    H3S13495   6.183   4.424   2.912 -1.1721 -1.5238  2.2763
  127OSM     O313496   6.349   4.407   2.793 -0.1010 -0.2452  0.3436
  127OSM    HO313497   6.317   4.393   2.704 -2.2990 -0.6104  1.1364
  127OSM    C4S13498   6.304   4.276   2.990  0.2102  0.2809 -0.5383
  127OSM    H4S13499   6.232   4.272   3.073 -2.2457 -1.2902 -2.6323
  127OSM    C5S13500   6.430   4.230   3.002 -0.1971  0.6948 -0.0683
  127OSM    H5S13501   6.509   4.246   2.927  0.4233 -1.2348  0.1196
  127OSM    C6S13502   6.479   4.161   3.128  0.9779  0.0660  0.3838
  127OSM    H6S13503   6.581   4.199   3.152  0.4778  1.4345  0.4060
  127OSM    H6T13504   6.485   4.053   3.101  0.6390 -0.2392  1.4859
  127OSM    C7S13505   6.397   4.186   3.255  0.6884 -0.5520 -0.0058
  127OSM    H7S13506   6.297   4.143   3.231 -0.5956  3.2333 -2.3437
  127OSM    H7T13507   6.372   4.293   3.271  0.6733 -0.7645  1.5170
  127OSM    C8S13508   6.461   4.145   3.391 -0.5982  0.4669 -0.1298
  127OSM    H8S13509   6.557   4.200   3.404 -0.1914 -0.4613  1.0322
  127OSM    H8T13510   6.482   4.036   3.401 -1.1955  0.3481 -0.1744
  127OSM    C9S13511   6.369   4.181   3.511 -0.7172  0.1552 -0.9483
  127OSM    H9S13512   6.286   4.108   3.496  0.2849 -1.2351  0.0396
  127OSM    H9T13513   6.336   4.287   3.506  0.5921  0.5783 -0.9060
  127OSM   C10S13514   6.436   4.148   3.646  0.6782 -0.6504  0.2529
  127OSM   H10S13515   6.518   4.074   3.631  0.9945 -0.6100  1.6616
  127OSM   H10T13516   6.350   4.106   3.702 -0.4179  2.5732  1.2186
  127OSM   C11S13517   6.494   4.270   3.730  0.1006  0.4473  0.3394
  127OSM   H11S13518   6.439   4.360   3.696  0.3262  0.8530  1.0496
  127OSM   H11T13519   6.598   4.291   3.697  0.8474 -3.1611 -0.1017
  127OSM   C12S13520   6.495   4.237   3.879  0.1931 -0.0629 -0.0955
  127OSM   H12S13521   6.562   4.314   3.923 -0.3678  2.7412 -3.6670
  127OSM   H12T13522   6.535   4.139   3.912 -0.3520 -0.6360 -1.1006
  127OSM   C13S13523   6.361   4.236   3.949  0.2193 -0.5327 -0.1951
  127OSM   H13S13524   6.283   4.176   3.897  0.7492 -0.5247 -1.0109
  127OSM   H13T13525   6.330   4.342   3.954  1.5278  0.0669 -2.9661
  127OSM   C14S13526   6.363   4.179   4.091 -0.2480 -0.3859  0.6069
  127OSM   H14S13527   6.408   4.249   4.164 -3.3670 -0.9622  3.3461
  127OSM   H14T13528   6.418   4.083   4.085 -0.8292 -0.7817  1.3405
  127OSM   C15S13529   6.226   4.158   4.149  0.5798  0.0407 -0.6733
  127OSM   H15S13530   6.160   4.233   4.101 -1.1936  0.4558  2.1453
  127OSM   H15T13531   6.229   4.170   4.260 -3.4399 -1.6417 -0.1989
  127OSM   C16S13532   6.158   4.019   4.123  0.4156  0.2009 -0.0192
  127OSM   H16S13533   6.149   4.008   4.013 -1.0332  0.6379  0.0384
  127OSM   H16T13534   6.057   4.014   4.168  0.6413 -1.2645  0.3728
  127OSM   C17S13535   6.223   3.903   4.189 -0.5632 -1.0705  0.3316
  127OSM   H17S13536   6.233   3.921   4.298  3.5203 -1.9590  0.2730
  127OSM   H17T13537   6.330   3.888   4.162  0.2325  0.9637  2.0499
  127OSM   C18S13538   6.143   3.779   4.179  0.4069  0.2661 -0.5748
  127OSM   H18S13539   6.096   3.777   4.078 -2.4485  0.1771  0.6830
  127OSM   H18T13540   6.065   3.776   4.257 -0.4663 -1.2310 -1.4536
  127OSM   H18U13541   6.200   3.683   4.175 -3.4605 -2.2734 -0.0369
  127OSM    C1F13542   5.966   4.085   2.812  0.4744  0.5377  0.2639
  127OSM     OF13543   5.998   4.031   2.706 -0.2394  0.7106  0.1573
  127OSM    C2F13544   5.846   4.049   2.899  0.3032  0.1280 -0.2964
  127OSM    H2F13545   5.771   4.130   2.901  0.1115 -0.0589  0.4416
  127OSM    H2G13546   5.881   4.035   3.004 -2.4023 -3.8178  0.3276
  127OSM    C3F13547   5.778   3.916   2.861 -0.1984 -0.6185  0.3516
  127OSM    H3F13548   5.847   3.829   2.866 -1.0252 -1.2453  1.1990
  127OSM    H3G13549   5.744   3.932   2.756 -1.1760 -0.6639  0.6489
  127OSM    C4F13550   5.659   3.881   2.954 -0.2082  0.0869 -0.2608
  127OSM    H4F13551   5.649   3.771   2.942  0.6664 -0.2691  1.9326
  127OSM    H4G13552   5.574   3.931   2.902  1.0078  0.6981 -1.7355
  127OSM    C5F13553   5.667   3.934   3.098 -0.1170 -1.1853 -0.2199
  127OSM    H5F13554   5.665   4.045   3.099 -0.2034 -1.1853  0.6793
  127OSM    H5G13555   5.767   3.911   3.140  0.7403 -0.3367 -1.7315
  127OSM    C6F13556   5.554   3.891   3.193 -1.1484 -0.3889  0.5201
  127OSM    H6F13557   5.551   3.781   3.211 -0.2611 -0.6535 -0.8380
  127OSM    H6G13558   5.455   3.935   3.169 -1.0782 -0.7520 -0.4692
  127OSM    C7F13559   5.567   3.954   3.336  0.1732 -0.2889 -1.0956
  127OSM    H7F13560   5.546   4.061   3.318 -0.3056 -0.3338 -0.8004
  127OSM    H7G13561   5.670   3.944   3.376 -0.3130  1.8364  0.8964
  127OSM    C8F13562   5.485   3.883   3.447  0.6118 -0.2319  0.7931
  127OSM    H8F13563   5.508   3.775   3.437 -0.1711 -0.2462 -1.0866
  127OSM    H8G13564   5.378   3.894   3.422  1.2123  1.6793 -1.3027
  127OSM    C9F13565   5.506   3.950   3.578  0.0443 -0.3678  0.3346
  127OSM    H9F13566   5.550   4.050   3.567 -1.4579  0.1772 -1.0608
  127OSM   C10F13567   5.477   3.900   3.694  0.6511 -0.4078  0.4543
  127OSM   H10F13568   5.487   3.962   3.785  0.7902 -1.0032  0.8477
  127OSM   C11F13569   5.428   3.760   3.725  0.2519 -0.3500 -0.8695
  127OSM   H11F13570   5.486   3.723   3.812  0.1575  0.8837 -0.2543
  127OSM   H11G13571   5.438   3.682   3.647  1.0016 -1.3384  0.1757
  127OSM   C12F13572   5.287   3.761   3.778  0.1164  0.2474 -0.4978
  127OSM   H12F13573   5.241   3.660   3.766 -0.5722  0.3236  1.2297
  127OSM   H12G13574   5.214   3.820   3.719 -1.2817  0.7060  1.5654
  127OSM   C13F13575   5.280   3.790   3.929 -0.2468 -0.1245  0.1823
  127OSM   H13F13576   5.302   3.896   3.955  1.6846  0.3019 -2.7150
  127OSM   H13G13577   5.361   3.739   3.986  0.3084  0.3188 -0.1909
  127OSM   C14F13578   5.143   3.756   3.995  0.5196  0.6672 -0.4008
  127OSM   H14F13579   5.129   3.646   3.995 -2.6510  0.9510  1.1318
  127OSM   H14G13580   5.067   3.797   3.924  0.0189  1.5424  0.6068
  127OSM   C15F13581   5.129   3.816   4.138 -0.3123 -0.3925  0.4468
  127OSM   H15F13582   5.138   3.925   4.118 -2.5026 -0.1548  0.5028
  127OSM   H15G13583   5.225   3.782   4.183 -0.6236 -0.5615  0.9913
  127OSM   C16F13584   5.006   3.778   4.209  0.3391  0.2411  0.2420
  127OSM   H16F13585   4.988   3.675   4.172 -0.4554 -0.2154  1.7958
  127OSM   H16G13586   4.918   3.835   4.172  2.3920  2.5214 -1.3910
  127OSM   C17F13587   5.005   3.789   4.362  0.2481  0.0214 -0.0801
  127OSM   H17F13588   4.903   3.759   4.396  0.6777 -2.4327 -0.7431
  127OSM   H17G13589   5.022   3.894   4.394 -1.3622  0.0350  0.8551
  127OSM   C18F13590   5.096   3.693   4.446  0.3419  0.2639  0.1936
  127OSM   H18F13591   5.085   3.717   4.554 -0.2246 -0.3570  0.2817
  127OSM   H18G13592   5.204   3.705   4.423  0.2825  2.6615  0.8992
  127OSM   H18H13593   5.063   3.588   4.430 -0.1479  0.1448  1.7867
  128OSM      N13594   5.629   3.940   2.180 -0.7600 -0.2902 -0.0995
  128OSM    C1513595   5.591   3.881   2.309  0.1982 -0.6946 -0.7873
  128OSM   H15A13596   5.484   3.867   2.308 -0.1395  1.5440 -1.3612
  128OSM   H15B13597   5.596   3.950   2.392 -0.5670  1.6101 -2.5565
  128OSM   H15C13598   5.649   3.798   2.347 -0.2584  0.3720  2.6144
  128OSM    C1413599   5.538   4.060   2.151  0.3557 -0.6728  0.6732
  128OSM   H14A13600   5.433   4.037   2.157  0.4194 -1.6406 -1.2759
  128OSM   H14B13601   5.556   4.103   2.054  2.7869 -1.6078  0.6253
  128OSM   H14C13602   5.555   4.138   2.225 -0.3188  0.2901 -0.1636
  128OSM    C1313603   5.777   3.976   2.184  0.0461  0.3471  0.1018
  128OSM   H13A13604   5.804   4.040   2.101  1.4469  1.8191  1.6213
  128OSM   H13B13605   5.843   3.891   2.191  3.1973  2.2450 -3.0199
  128OSM   H13C13606   5.806   4.034   2.270  1.1506 -1.4627  1.0003
  128OSM    C1213607   5.618   3.834   2.078  0.2839 -0.5698  0.4914
  128OSM   H12A13608   5.690   3.755   2.097  0.3852 -0.8596 -0.9915
  128OSM   H12B13609   5.634   3.875   1.980  0.4034 -0.0290  0.7343
  128OSM    C1113610   5.471   3.771   2.063 -0.1753  0.1555 -0.3608
  128OSM   H11A13611   5.476   3.722   1.963  0.9739 -0.6557  0.0697
  128OSM   H11B13612   5.385   3.841   2.060  0.1694  0.5491 -1.9634
  128OSM      P13613   5.507   3.521   2.157 -0.2507 -0.0136  0.3461
  128OSM    O1313614   5.417   3.422   2.100 -0.1048 -0.6834 -0.5519
  128OSM    O1413615   5.640   3.535   2.092 -0.3507 -1.0989 -0.0728
  128OSM    O1113616   5.524   3.488   2.312  0.3861 -0.5845 -0.1129
  128OSM    O1213617   5.449   3.669   2.165 -0.6926  0.2163  0.0302
  128OSM    C1S13618   5.405   3.503   2.388  0.5215  0.4747  0.3407
  128OSM    H1S13619   5.329   3.427   2.361 -1.4519  3.4159 -3.3655
  128OSM    H1T13620   5.362   3.605   2.385 -1.2613 -0.2712 -1.0212
  128OSM     NF13621   5.316   3.472   2.626  0.0846  0.6759 -0.1091
  128OSM    HNF13622   5.298   3.549   2.686  0.2146  0.8224 -0.2548
  128OSM    C2S13623   5.438   3.489   2.541 -0.0750  0.0697 -1.1231
  128OSM    H2S13624   5.496   3.396   2.557 -0.2120  0.3401  1.2523
  128OSM    C3S13625   5.539   3.606   2.586  0.2360  0.3054  0.3309
  128OSM    H3S13626   5.478   3.698   2.572 -0.1343 -0.1363 -1.1225
  128OSM     O313627   5.650   3.627   2.497  0.0747  0.0316 -0.3886
  128OSM    HO313628   5.633   3.574   2.419 -0.6659  0.5514 -0.5938
  128OSM    C4S13629   5.583   3.586   2.731 -0.3718  0.6430  0.1296
  128OSM    H4S13630   5.532   3.646   2.808 -0.5632 -2.2902  2.4460
  128OSM    C5S13631   5.672   3.497   2.781 -0.1618  0.5764  1.0036
  128OSM    H5S13632   5.723   3.426   2.715  0.1506  1.3005  0.4528
  128OSM    C6S13633   5.718   3.494   2.924  0.3560  0.3395  0.2193
  128OSM    H6S13634   5.778   3.583   2.954 -0.6652  0.5930  1.6060
  128OSM    H6T13635   5.784   3.405   2.931 -1.1717 -0.7146  1.8640
  128OSM    C7S13636   5.606   3.475   3.034 -0.1376  0.1242  0.3969
  128OSM    H7S13637   5.551   3.385   3.000 -3.0917  2.2578 -0.8828
  128OSM    H7T13638   5.533   3.558   3.037 -0.5251 -0.1389 -0.9859
  128OSM    C8S13639   5.667   3.462   3.177 -0.2126  0.1029 -0.3498
  128OSM    H8S13640   5.737   3.548   3.186  1.2601 -0.8562 -2.1086
  128OSM    H8T13641   5.732   3.373   3.189 -2.1919 -1.2399  0.8050
  128OSM    C9S13642   5.558   3.481   3.275  0.5690 -0.0450  0.5234
  128OSM    H9S13643   5.473   3.412   3.254 -0.2006  1.1118 -0.2599
  128OSM    H9T13644   5.524   3.587   3.273  1.0390  0.1054 -1.0487
  128OSM   C10S13645   5.612   3.444   3.415 -0.4510  0.0595 -0.1217
  128OSM   H10S13646   5.678   3.523   3.458  0.8145 -0.9880 -0.0663
  128OSM   H10T13647   5.670   3.349   3.416  2.2675  1.6062  1.0638
  128OSM   C11S13648   5.500   3.409   3.512 -0.0327 -0.4220 -0.2804
  128OSM   H11S13649   5.452   3.312   3.485 -0.9533  0.5961 -2.5312
  128OSM   H11T13650   5.419   3.483   3.501  0.3474 -0.0088 -0.3585
  128OSM   C12S13651   5.557   3.402   3.655 -0.5923 -0.3385  1.0142
  128OSM   H12S13652   5.579   3.502   3.699  0.1115  0.0506 -0.1759
  128OSM   H12T13653   5.648   3.341   3.643 -0.4951 -0.0341  0.1284
  128OSM   C13S13654   5.461   3.326   3.753  0.3804 -0.2324  0.3903
  128OSM   H13S13655   5.448   3.222   3.717 -0.3937 -0.3063  0.8628
  128OSM   H13T13656   5.366   3.383   3.751  1.8407  2.3541 -1.7289
  128OSM   C14S13657   5.526   3.341   3.900  1.1910  0.1081  0.6208
  128OSM   H14S13658   5.522   3.450   3.921 -0.4481  0.2324 -0.1139
  128OSM   H14T13659   5.630   3.303   3.903  0.4816 -1.9881  1.0384
  128OSM   C15S13660   5.448   3.285   4.016  0.3358 -0.3775  0.6520
  128OSM   H15S13661   5.521   3.286   4.100 -0.4599 -0.0650  1.3461
  128OSM   H15T13662   5.415   3.180   4.002 -0.2227 -0.4352  2.2565
  128OSM   C16S13663   5.334   3.369   4.068 -0.2746 -0.1631  0.7334
  128OSM   H16S13664   5.251   3.374   3.995  0.5048 -2.6197 -0.4421
  128OSM   H16T13665   5.359   3.475   4.088 -1.7543  0.7028 -1.5146
  128OSM   C17S13666   5.274   3.309   4.191 -0.6371 -0.5124  0.1920
  128OSM   H17S13667   5.352   3.294   4.269 -0.4473 -3.2640 -0.4495
  128OSM   H17T13668   5.225   3.215   4.158 -0.8093 -0.5710  0.6076
  128OSM   C18S13669   5.169   3.383   4.271 -0.3432  0.0202 -0.5650
  128OSM   H18S13670   5.076   3.404   4.213 -0.8514  0.0600  0.2533
  128OSM   H18T13671   5.216   3.476   4.307  0.8300 -0.8588  0.2415
  128OSM   H18U13672   5.150   3.329   4.367  1.6539  0.0231 -0.1404
  128OSM    C1F13673   5.250   3.360   2.628 -0.3104 -0.2285  0.0299
  128OSM     OF13674   5.293   3.251   2.577  0.4734 -0.1128  0.2246
  128OSM    C2F13675   5.122   3.373   2.699  0.1474  0.6402  0.4011
  128OSM    H2F13676   5.043   3.403   2.628  0.1208 -1.6317 -0.6342
  128OSM    H2G13677   5.116   3.448   2.780 -0.3888  1.0107  0.0153
  128OSM    C3F13678   5.093   3.235   2.759 -0.5367  0.5984 -0.4280
  128OSM    H3F13679   5.073   3.166   2.674 -1.1254  2.2765 -1.7004
  128OSM    H3G13680   4.993   3.243   2.807 -0.3418 -2.4650  0.6844
  128OSM    C4F13681   5.207   3.179   2.851  0.0009 -0.2211 -0.9340
  128OSM    H4F13682   5.305   3.158   2.803 -0.6393 -0.9163 -1.9543
  128OSM    H4G13683   5.172   3.077   2.877 -2.3303  0.3279 -1.7356
  128OSM    C5F13684   5.237   3.274   2.965  0.6947 -0.1635 -0.5706
  128OSM    H5F13685   5.146   3.299   3.023  0.1832  0.0730 -1.4603
  128OSM    H5G13686   5.262   3.372   2.919  0.4458  0.4718  0.5925
  128OSM    C6F13687   5.341   3.230   3.070 -0.5911  0.6355  0.3399
  128OSM    H6F13688   5.367   3.322   3.127 -1.6183  0.7524  0.6381
  128OSM    H6G13689   5.431   3.205   3.010  0.1269  0.5392  1.4248
  128OSM    C7F13690   5.297   3.105   3.157 -0.1784  0.4868 -0.4769
  128OSM    H7F13691   5.280   3.012   3.097  0.7724  0.0640 -0.1157
  128OSM    H7G13692   5.198   3.130   3.201  0.0311  0.1933  0.1636
  128OSM    C8F13693   5.377   3.052   3.282  0.0453  0.4603  0.1697
  128OSM    H8F13694   5.394   3.135   3.354 -0.1228  1.1654 -0.5862
  128OSM    H8G13695   5.472   3.026   3.230 -0.7423  1.2500 -1.7837
  128OSM    C9F13696   5.324   2.924   3.347  0.9672 -0.0922  0.1338
  128OSM    H9F13697   5.313   2.837   3.281  1.5822 -2.0311  2.4456
  128OSM   C10F13698   5.278   2.910   3.477  0.3010  0.1436  0.0879
  128OSM   H10F13699   5.241   2.811   3.506 -0.1782  0.1105 -0.6155
  128OSM   C11F13700   5.287   3.015   3.587  0.2347  0.6733  0.0437
  128OSM   H11F13701   5.240   3.112   3.560 -4.5247 -1.5153 -0.6053
  128OSM   H11G13702   5.393   3.037   3.612  0.7172 -1.1038 -0.2947
  128OSM   C12F13703   5.203   2.975   3.711  0.1429 -0.2162  0.0949
  128OSM   H12F13704   5.126   2.897   3.695  2.6757 -3.0571  0.7934
  128OSM   H12G13705   5.143   3.062   3.746 -0.2471  1.8595 -4.9505
  128OSM   C13F13706   5.295   2.938   3.819  0.8149 -0.2073 -0.5441
  128OSM   H13F13707   5.366   3.021   3.840 -0.3106 -0.0665  3.7538
  128OSM   H13G13708   5.359   2.856   3.780 -0.1646 -1.1894 -0.1704
  128OSM   C14F13709   5.217   2.906   3.949  0.0716 -0.9588 -0.3110
  128OSM   H14F13710   5.137   2.984   3.943  0.1475 -0.8255  0.3309
  128OSM   H14G13711   5.292   2.919   4.030  0.6829 -3.1858 -0.4663
  128OSM   C15F13712   5.154   2.775   3.969 -0.3040 -0.0938 -0.3433
  128OSM   H15F13713   5.231   2.695   3.966 -0.2589 -0.0224 -2.0160
  128OSM   H15G13714   5.085   2.754   3.884  0.2780 -0.6682 -0.6841
  128OSM   C16F13715   5.087   2.751   4.102 -0.1793 -0.0731  1.1741
  128OSM   H16F13716   5.018   2.836   4.122 -0.7066  0.1828 -1.4250
  128OSM   H16G13717   5.164   2.744   4.181  1.5534 -3.0054 -0.6091
  128OSM   C17F13718   4.996   2.623   4.110 -0.1063 -0.6508 -0.1874
  128OSM   H17F13719   5.041   2.522   4.098 -1.6846 -1.4374  0.1930
  128OSM   H17G13720   4.932   2.623   4.020  0.5819 -1.8804 -0.7000
  128OSM   C18F13721   4.895   2.620   4.222  0.3534  0.1725  0.0336
  128OSM   H18F13722   4.939   2.585   4.318  2.8911 -0.8885 -1.3956
  128OSM   H18G13723   4.810   2.557   4.188 -0.6084  3.0361 -3.3993
  128OSM   H18H13724   4.855   2.723   4.233 -1.2823 -0.1008 -2.6254
  129OSM      N13725   0.347   2.073   2.539  0.6268 -0.1915  0.0782
  129OSM    C1513726   0.430   1.971   2.615  0.0745  0.5198  0.0944
  129OSM   H15A13727   0.503   2.023   2.675 -0.2865  0.9654  0.1449
  129OSM   H15B13728   0.487   1.911   2.545  3.0520  0.2726  2.5118
  129OSM   H15C13729   0.369   1.904   2.674  0.0342  0.8464  0.4275
  129OSM    C1413730   0.284   2.162   2.639  0.2199  0.4329 -0.0190
  129OSM   H14A13731   0.362   2.216   2.690  0.1663  1.9563 -1.4461
  129OSM   H14B13732   0.226   2.109   2.713  0.2396 -2.0408 -1.6407
  129OSM   H14C13733   0.217   2.238   2.600 -1.1239  0.2649  1.8454
  129OSM    C1313734   0.435   2.160   2.448  0.8571  0.9745 -1.0171
  129OSM   H13A13735   0.504   2.105   2.386 -1.0707 -1.2412 -1.3092
  129OSM   H13B13736   0.505   2.225   2.500 -0.1131  0.1458  1.4262
  129OSM   H13C13737   0.376   2.209   2.372 -0.9178 -1.2464 -1.1418
  129OSM    C1213738   0.248   2.000   2.446 -0.9085 -0.1754 -0.3515
  129OSM   H12A13739   0.170   1.961   2.511 -1.2298  2.6391  1.0893
  129OSM   H12B13740   0.301   1.910   2.420  0.5199 -0.6240  3.4075
  129OSM    C1113741   0.190   2.088   2.327  0.7816  0.0877 -0.2313
  129OSM   H11A13742   0.132   2.020   2.261 -0.2411  0.5554  0.1574
  129OSM   H11B13743   0.272   2.125   2.262  1.8603  0.9806  1.5573
  129OSM      P13744   0.124   2.345   2.343  0.0455  0.1712 -0.1950
  129OSM    O1313745   0.251   2.361   2.273 -0.2752  0.4433  0.2419
  129OSM    O1413746   0.004   2.391   2.271 -0.0469 -0.1458 -0.1143
  129OSM    O1113747   0.130   2.410   2.482 -0.2595 -0.7900  0.7552
  129OSM    O1213748   0.107   2.196   2.376 -0.4474  0.7941 -0.5752
  129OSM    C1S13749   0.018   2.417   2.573  0.0989 -0.5660 -0.3903
  129OSM    H1S13750  -0.024   2.316   2.597  4.3755 -1.9727  2.4470
  129OSM    H1T13751  -0.062   2.478   2.527  0.4524  1.2350  1.2699
  129OSM     NF13752  -0.035   2.447   2.819 -0.3258 -0.1499  0.4533
  129OSM    HNF13753  -0.103   2.517   2.840  0.8169  1.3265 -0.5369
  129OSM    C2S13754   0.053   2.479   2.711 -0.4961 -0.4379  0.1619
  129OSM    H2S13755   0.153   2.439   2.739 -0.1678 -0.3009 -0.7955
  129OSM    C3S13756   0.075   2.635   2.704  0.3848 -0.5795 -0.3272
  129OSM    H3S13757  -0.020   2.680   2.669 -1.0506 -0.9406  2.8420
  129OSM     O313758   0.167   2.668   2.602  0.2977  0.2843  0.1619
  129OSM    HO313759   0.177   2.586   2.553 -0.8157 -0.9665  1.8944
  129OSM    C4S13760   0.109   2.714   2.830  0.1797 -0.6202  0.2831
  129OSM    H4S13761   0.187   2.665   2.891  0.7656  0.2116  0.2058
  129OSM    C5S13762   0.066   2.840   2.857  0.2705 -0.0610  0.4727
  129OSM    H5S13763   0.004   2.883   2.777 -0.5220 -1.2013  0.4617
  129OSM    C6S13764   0.103   2.921   2.979  0.3411  0.3460  0.0950
  129OSM    H6S13765   0.005   2.950   3.023  0.0262 -2.0888  1.0973
  129OSM    H6T13766   0.162   3.011   2.950  0.2687 -0.3845 -2.5943
  129OSM    C7S13767   0.173   2.847   3.097 -0.1870  0.2960 -0.0142
  129OSM    H7S13768   0.279   2.843   3.064 -0.1644  1.1453 -0.0725
  129OSM    H7T13769   0.122   2.748   3.103  0.8206 -0.1954  0.7154
  129OSM    C8S13770   0.162   2.917   3.239 -0.6763 -0.4543  0.3911
  129OSM    H8S13771   0.057   2.895   3.271 -1.3443 -0.1592 -1.4374
  129OSM    H8T13772   0.168   3.026   3.223 -1.0030 -0.5306 -0.3120
  129OSM    C9S13773   0.272   2.863   3.333  0.5253 -0.8921  0.1397
  129OSM    H9S13774   0.368   2.888   3.283  0.5268 -0.3081  0.4177
  129OSM    H9T13775   0.263   2.753   3.339 -1.9242 -0.8260 -1.0330
  129OSM   C10S13776   0.275   2.925   3.473  0.4796 -0.5323  0.2479
  129OSM   H10S13777   0.248   3.032   3.469 -1.8209 -1.0301  0.7131
  129OSM   H10T13778   0.374   2.914   3.520  0.8686  0.3359 -0.3413
  129OSM   C11S13779   0.189   2.851   3.576  0.0370  0.0500  0.2982
  129OSM   H11S13780   0.216   2.744   3.587  1.1884  0.3185  0.1884
  129OSM   H11T13781   0.081   2.847   3.551  0.1629 -1.1093 -0.1163
  129OSM   C12S13782   0.197   2.918   3.716  0.0613 -0.2263  0.1653
  129OSM   H12S13783   0.176   3.025   3.697 -2.0156 -0.5707  0.2728
  129OSM   H12T13784   0.300   2.902   3.754  0.4982  0.7376 -0.5830
  129OSM   C13S13785   0.099   2.866   3.828 -0.6267 -0.7685  0.8296
  129OSM   H13S13786   0.111   2.755   3.825 -0.9500 -0.7809 -0.4228
  129OSM   H13T13787  -0.002   2.877   3.784 -0.0932  0.0080 -0.2670
  129OSM   C14S13788   0.101   2.928   3.963 -0.3582 -0.5825  0.9367
  129OSM   H14S13789   0.011   2.894   4.020 -0.4511  0.8602  1.6958
  129OSM   H14T13790   0.084   3.036   3.940 -2.0691 -1.1851 -0.9375
  129OSM   C15S13791   0.228   2.898   4.045  0.3517 -0.2473  0.0644
  129OSM   H15S13792   0.321   2.923   3.989  0.3839 -0.4562  0.0216
  129OSM   H15T13793   0.227   2.787   4.057  0.4998 -0.1167  1.4184
  129OSM   C16S13794   0.224   2.967   4.181  0.5253 -0.1160  0.0369
  129OSM   H16S13795   0.137   2.943   4.245  1.1463 -2.3705  0.0925
  129OSM   H16T13796   0.222   3.077   4.165  3.2222 -0.0062 -0.0743
  129OSM   C17S13797   0.332   2.924   4.280 -0.2982 -0.0193 -0.3747
  129OSM   H17S13798   0.315   2.820   4.314  0.6499 -0.2137 -0.4596
  129OSM   H17T13799   0.337   2.997   4.363 -1.5620  0.0349 -0.3308
  129OSM   C18S13800   0.479   2.912   4.227  0.7522 -0.4662 -0.3485
  129OSM   H18S13801   0.521   3.012   4.202  0.6143  0.1253  1.6502
  129OSM   H18T13802   0.489   2.841   4.142  1.6979 -1.3216  0.4454
  129OSM   H18U13803   0.546   2.884   4.311  2.6799  0.1685 -1.5906
  129OSM    C1F13804  -0.052   2.319   2.863 -0.6790 -0.0080  0.8772
  129OSM     OF13805  -0.003   2.219   2.811  0.4429  0.1512 -0.0604
  129OSM    C2F13806  -0.152   2.298   2.974  0.3830 -0.5747 -0.2267
  129OSM    H2F13807  -0.165   2.190   2.996 -3.1601 -0.2938 -0.2500
  129OSM    H2G13808  -0.250   2.332   2.934  1.5804  3.1308 -0.4079
  129OSM    C3F13809  -0.112   2.366   3.100 -0.1842  0.3418  1.2094
  129OSM    H3F13810  -0.110   2.474   3.074 -1.0518  0.4610  1.5810
  129OSM    H3G13811  -0.018   2.322   3.138 -0.8317 -2.6085 -0.2793
  129OSM    C4F13812  -0.218   2.360   3.208  0.3517  0.3848 -0.6374
  129OSM    H4F13813  -0.252   2.256   3.193  1.2053 -0.0508  0.3324
  129OSM    H4G13814  -0.306   2.426   3.194  1.6224  2.6516  1.1302
  129OSM    C5F13815  -0.167   2.389   3.347 -0.5511  0.3889 -0.1783
  129OSM    H5F13816  -0.134   2.495   3.344 -0.3237  0.3248  0.0392
  129OSM    H5G13817  -0.080   2.326   3.372 -0.2020  0.8916 -0.1063
  129OSM    C6F13818  -0.279   2.353   3.448  0.8877 -0.4473 -0.0180
  129OSM    H6F13819  -0.234   2.331   3.547  2.9487  0.3958 -0.7250
  129OSM    H6G13820  -0.337   2.263   3.417  0.1958 -0.1053  0.2562
  129OSM    C7F13821  -0.381   2.470   3.479  0.0689 -0.1011  0.4522
  129OSM    H7F13822  -0.474   2.426   3.520  0.0298  2.8253  4.0178
  129OSM    H7G13823  -0.404   2.522   3.384  0.4171  0.1307  0.4890
  129OSM    C8F13824  -0.326   2.574   3.583  0.1600  0.0739  0.4494
  129OSM    H8F13825  -0.238   2.626   3.540  0.2012 -1.5595 -1.6148
  129OSM    H8G13826  -0.292   2.531   3.679  0.6808  0.8923  0.6421
  129OSM    C9F13827  -0.436   2.671   3.616  0.4825 -0.6304  0.3181
  129OSM    H9F13828  -0.454   2.753   3.545  1.8960  0.0120  0.6824
  129OSM   C10F13829  -0.519   2.656   3.717  0.6500 -0.5499 -0.1575
  129OSM   H10F13830  -0.600   2.729   3.730 -0.0414 -1.3335 -0.0603
  129OSM   C11F13831  -0.512   2.550   3.826 -0.2746  0.0527 -0.1717
  129OSM   H11F13832  -0.451   2.459   3.809 -0.6182 -0.0889 -0.6649
  129OSM   H11G13833  -0.613   2.510   3.846 -0.0108 -1.2354 -1.2809
  129OSM   C12F13834  -0.468   2.620   3.951 -0.3069 -0.5092 -0.3073
  129OSM   H12F13835  -0.361   2.651   3.952 -0.6530  1.0362 -2.6871
  129OSM   H12G13836  -0.461   2.534   4.020 -3.4673 -1.0369 -0.5275
  129OSM   C13F13837  -0.569   2.722   4.015 -0.2092  0.0957 -0.5138
  129OSM   H13F13838  -0.663   2.663   4.021  1.4528 -2.6262  3.5790
  129OSM   H13G13839  -0.567   2.811   3.948  0.6179 -0.2970 -1.0273
  129OSM   C14F13840  -0.519   2.766   4.157 -0.1453 -0.3043  0.3698
  129OSM   H14F13841  -0.585   2.850   4.186  0.2919 -0.0704  0.7132
  129OSM   H14G13842  -0.420   2.816   4.149  0.1808 -1.0409 -0.3034
  129OSM   C15F13843  -0.515   2.661   4.269 -0.1854  0.5930 -0.5992
  129OSM   H15F13844  -0.429   2.592   4.251 -1.2814 -0.8269 -0.5874
  129OSM   H15G13845  -0.606   2.598   4.275 -1.2232  2.1656  2.1878
  129OSM   C16F13846  -0.485   2.725   4.409  0.5646  0.2085  1.0499
  129OSM   H16F13847  -0.578   2.768   4.453  1.7453  1.2301  2.6748
  129OSM   H16G13848  -0.424   2.816   4.391  0.7238 -0.2182 -0.7174
  129OSM   C17F13849  -0.426   2.630   4.513 -0.3262 -0.3461 -0.1696
  129OSM   H17F13850  -0.331   2.588   4.474 -0.4429  0.3792 -1.2967
  129OSM   H17G13851  -0.492   2.544   4.534  0.5764 -0.7497  1.1134
  129OSM   C18F13852  -0.376   2.704   4.640 -0.0930  0.5116  0.3348
  129OSM   H18F13853  -0.316   2.797   4.623  1.8851 -0.5725  1.0575
  129OSM   H18G13854  -0.320   2.640   4.712 -1.1682 -0.6153  0.1905
  129OSM   H18H13855  -0.455   2.734   4.712 -0.1898  0.0195  0.4368
  130OSM      N13856   0.261   6.079   3.016 -0.9466  0.5276  0.0558
  130OSM    C1513857   0.201   6.194   2.938 -0.4256 -1.0136  0.0222
  130OSM   H15A13858   0.173   6.155   2.841  0.0341 -2.4577  0.4453
  130OSM   H15B13859   0.271   6.275   2.925 -2.7224  1.4071  1.6868
  130OSM   H15C13860   0.120   6.232   2.998  0.9405 -0.9529  1.9392
  130OSM    C1413861   0.361   6.020   2.922  0.1762  0.0397  0.8461
  130OSM   H14A13862   0.409   5.934   2.966  2.4592  0.9399  0.2692
  130OSM   H14B13863   0.433   6.090   2.883 -1.2705  1.5555  0.7674
  130OSM   H14C13864   0.319   5.999   2.825 -0.8091  0.8301  1.0862
  130OSM    C1313865   0.338   6.125   3.138 -0.4249  0.1522 -0.0631
  130OSM   H13A13866   0.390   6.051   3.196 -3.4847  0.2796  3.1399
  130OSM   H13B13867   0.268   6.155   3.214  2.2825  1.4604  2.1052
  130OSM   H13C13868   0.399   6.211   3.116 -0.4647 -0.6677 -4.2273
  130OSM    C1213869   0.149   5.979   3.048  0.1311 -0.6390  0.6926
  130OSM   H12A13870   0.106   5.956   2.951  1.0369  0.9222 -0.1320
  130OSM   H12B13871   0.085   6.038   3.112  0.0741 -0.2849  0.3169
  130OSM    C1113872   0.186   5.842   3.117  0.0236  0.0754 -0.5339
  130OSM   H11A13873   0.091   5.788   3.132  0.9572 -1.5243 -0.1929
  130OSM   H11B13874   0.225   5.855   3.220  0.0438  0.0943 -0.5436
  130OSM      P13875   0.211   5.690   2.902 -0.0141  0.0074 -0.0705
  130OSM    O1313876   0.081   5.754   2.864 -0.1643  0.6617 -0.1580
  130OSM    O1413877   0.316   5.685   2.800 -0.0169 -0.0534  0.5142
  130OSM    O1113878   0.177   5.547   2.967 -0.5494 -0.1836  0.0124
  130OSM    O1213879   0.269   5.772   3.026  0.4828  0.3578  0.0582
  130OSM    C1S13880   0.272   5.513   3.069 -0.3955 -0.5538 -0.1132
  130OSM    H1S13881   0.265   5.571   3.164  0.4525 -0.8231  0.1183
  130OSM    H1T13882   0.378   5.517   3.036 -0.6060  2.6094 -0.7078
  130OSM     NF13883   0.288   5.338   3.241 -0.8448 -0.8596 -0.5876
  130OSM    HNF13884   0.374   5.287   3.245  0.0657  0.6102 -0.5448
  130OSM    C2S13885   0.239   5.365   3.111  0.5261  0.8460 -0.2376
  130OSM    H2S13886   0.131   5.344   3.102  1.3948 -4.4160 -2.0484
  130OSM    C3S13887   0.291   5.272   2.993 -0.2578 -0.2824  0.0436
  130OSM    H3S13888   0.401   5.285   2.982 -0.0201  0.1397  2.4916
  130OSM     O313889   0.235   5.308   2.867  0.3858  0.1997 -0.8553
  130OSM    HO313890   0.174   5.381   2.885  0.0044 -0.0363 -1.1692
  130OSM    C4S13891   0.270   5.128   3.020 -0.1163 -0.1322 -0.4970
  130OSM    H4S13892   0.163   5.105   3.029 -0.7418  1.5700 -2.6305
  130OSM    C5S13893   0.364   5.037   3.044  0.1651  0.6134  0.4706
  130OSM    H5S13894   0.471   5.065   3.050  0.8500 -1.8657  0.9943
  130OSM    C6S13895   0.335   4.892   3.083  0.2278 -0.1354  0.2754
  130OSM    H6S13896   0.384   4.833   3.003  0.1276  0.6795 -0.4066
  130OSM    H6T13897   0.228   4.865   3.079  0.2570 -0.1721 -0.3480
  130OSM    C7S13898   0.390   4.869   3.226 -0.5670 -0.3542 -0.3364
  130OSM    H7S13899   0.350   4.947   3.295  2.7569  0.2612  1.0785
  130OSM    H7T13900   0.495   4.902   3.241 -0.8218  1.1408 -1.5450
  130OSM    C8S13901   0.361   4.735   3.292 -0.1479  0.2296 -0.8208
  130OSM    H8S13902   0.387   4.654   3.220  2.5558  0.2028  0.0987
  130OSM    H8T13903   0.250   4.729   3.291 -0.1200 -0.2865 -1.3202
  130OSM    C9S13904   0.416   4.730   3.443 -0.4804 -0.0057 -0.0440
  130OSM    H9S13905   0.361   4.810   3.497  1.0549  2.4293 -1.9043
  130OSM    H9T13906   0.522   4.762   3.442 -0.9710  1.8105 -1.7075
  130OSM   C10S13907   0.399   4.595   3.511  0.4381 -0.3335 -0.3581
  130OSM   H10S13908   0.453   4.521   3.448  0.1994 -1.4127  0.6705
  130OSM   H10T13909   0.293   4.563   3.519 -0.5472  2.8454  0.6903
  130OSM   C11S13910   0.458   4.587   3.655  0.2855 -0.4591  1.2258
  130OSM   H11S13911   0.408   4.660   3.721  2.1242 -0.2863  2.4891
  130OSM   H11T13912   0.568   4.601   3.655  0.4746 -1.7878  1.8173
  130OSM   C12S13913   0.436   4.455   3.717 -0.6618  0.1807 -0.3314
  130OSM   H12S13914   0.451   4.370   3.648 -1.6183  0.7720 -1.2967
  130OSM   H12T13915   0.331   4.452   3.753 -0.0225 -3.2893  1.6545
  130OSM   C13S13916   0.517   4.439   3.844 -0.1832  0.1404  0.0537
  130OSM   H13S13917   0.503   4.540   3.889  1.5487  1.1160 -1.4539
  130OSM   H13T13918   0.625   4.424   3.824 -0.2737 -0.2210 -0.1676
  130OSM   C14S13919   0.475   4.324   3.939 -0.0408  0.2010  0.6580
  130OSM   H14S13920   0.502   4.229   3.887  0.3960  0.6888 -0.0229
  130OSM   H14T13921   0.364   4.325   3.941 -0.0412  1.1112  0.5251
  130OSM   C15S13922   0.549   4.322   4.077  0.5202 -0.0954  0.2939
  130OSM   H15S13923   0.589   4.425   4.092 -0.1559  0.3838 -1.0377
  130OSM   H15T13924   0.639   4.258   4.064 -0.5686 -1.7498  0.5738
  130OSM   C16S13925   0.461   4.262   4.197  0.3859  0.0904  0.1835
  130OSM   H16S13926   0.417   4.163   4.177 -2.2022  1.1322  0.3766
  130OSM   H16T13927   0.380   4.335   4.218 -1.0577 -1.2743 -0.4093
  130OSM   C17S13928   0.532   4.251   4.328  0.1292 -0.1470  0.6607
  130OSM   H17S13929   0.458   4.272   4.408 -1.5530  0.6874 -1.0503
  130OSM   H17T13930   0.603   4.333   4.352 -1.2554  1.0257  0.8940
  130OSM   C18S13931   0.597   4.110   4.338 -0.2001  0.4725  0.5103
  130OSM   H18S13932   0.680   4.098   4.266 -1.4884  3.3476 -1.6502
  130OSM   H18T13933   0.532   4.020   4.343  0.1209  0.2742  1.2276
  130OSM   H18U13934   0.648   4.130   4.435  0.3289  2.4311 -0.1308
  130OSM    C1F13935   0.231   5.394   3.351 -0.7637 -0.1820 -0.7006
  130OSM     OF13936   0.123   5.450   3.353  0.1539 -0.0658  0.4668
  130OSM    C2F13937   0.308   5.394   3.479 -1.2600  0.4082  0.3882
  130OSM    H2F13938   0.393   5.466   3.479 -1.4877  0.6960  1.4319
  130OSM    H2G13939   0.363   5.300   3.501 -0.8774  0.9129  1.6748
  130OSM    C3F13940   0.216   5.415   3.604 -0.2556  0.0316 -0.4324
  130OSM    H3F13941   0.125   5.350   3.601 -0.8505  0.7763  0.6878
  130OSM    H3G13942   0.186   5.522   3.605  2.2499  0.7881 -0.1632
  130OSM    C4F13943   0.282   5.384   3.736 -0.8645 -0.1071 -0.4421
  130OSM    H4F13944   0.308   5.276   3.735  0.2525  0.1493 -0.1496
  130OSM    H4G13945   0.215   5.397   3.824  0.5954  1.7579  0.4763
  130OSM    C5F13946   0.399   5.485   3.768  0.2289  0.4466  0.7625
  130OSM    H5F13947   0.359   5.588   3.776  1.9433  1.0406  2.3941
  130OSM    H5G13948   0.481   5.482   3.693  2.6363 -2.5705  3.2410
  130OSM    C6F13949   0.475   5.462   3.898 -0.0641 -0.1397 -0.1066
  130OSM    H6F13950   0.567   5.525   3.891 -1.2365  1.5881 -0.6269
  130OSM    H6G13951   0.490   5.353   3.914 -1.6953  0.0606  3.9592
  130OSM    C7F13952   0.401   5.529   4.014 -0.3128  0.1569  0.2454
  130OSM    H7F13953   0.293   5.503   4.013  0.4744 -4.1176 -2.8648
  130OSM    H7G13954   0.413   5.637   3.989 -1.6652 -0.1476 -2.0468
  130OSM    C8F13955   0.466   5.497   4.153  0.2583  0.2471 -0.1912
  130OSM    H8F13956   0.416   5.563   4.228 -1.9347 -0.5953 -0.8321
  130OSM    H8G13957   0.574   5.518   4.138  0.2822 -0.3120 -0.8247
  130OSM    C9F13958   0.461   5.356   4.193 -0.2784  0.4395 -0.3749
  130OSM    H9F13959   0.463   5.286   4.108 -0.2533  0.5337 -0.4512
  130OSM   C10F13960   0.456   5.299   4.317 -0.5622  0.0793  0.5094
  130OSM   H10F13961   0.449   5.189   4.322 -0.0392 -0.0336 -0.7787
  130OSM   C11F13962   0.464   5.379   4.445  0.2144 -0.2904 -0.0598
  130OSM   H11F13963   0.496   5.485   4.432 -0.5389  0.1495  1.4708
  130OSM   H11G13964   0.526   5.328   4.521 -0.6198 -0.0058  0.8312
  130OSM   C12F13965   0.323   5.397   4.510  0.1341 -0.0912  0.0126
  130OSM   H12F13966   0.263   5.305   4.522 -1.4575  0.8360 -0.5569
  130OSM   H12G13967   0.260   5.464   4.448  1.1270  2.8690  1.9266
  130OSM   C13F13968   0.320   5.465   4.643  0.3896  0.2698  0.2207
  130OSM   H13F13969   0.369   5.565   4.638  0.3716  0.2343 -3.5071
  130OSM   H13G13970   0.374   5.404   4.719 -0.5509  0.1176  0.7748
  130OSM   C14F13971   0.180   5.465   4.713 -0.3155 -0.5527  0.8417
  130OSM   H14F13972   0.143   5.361   4.701 -0.2568 -0.4679 -0.1626
  130OSM   H14G13973   0.105   5.523   4.656  1.7611  0.2708 -1.2445
  130OSM   C15F13974   0.187   5.517   4.857  0.0982  0.5722 -0.3987
  130OSM   H15F13975   0.090   5.564   4.886  0.3278 -0.1809  1.7562
  130OSM   H15G13976   0.266   5.595   4.854  1.3264 -0.5592  1.2755
  130OSM   C16F13977   0.216   5.391   4.948  0.1318  0.0998  0.2854
  130OSM   H16F13978   0.317   5.360   4.916 -0.4100  0.2194 -1.6417
  130OSM   H16G13979   0.131   5.324   4.922  1.4773 -1.9218  0.8341
  130OSM   C17F13980   0.198   5.428   5.097  0.5047  0.4295 -0.7996
  130OSM   H17F13981   0.118   5.505   5.099  2.1253  2.2090 -1.6418
  130OSM   H17G13982   0.291   5.482   5.124  1.2990 -0.6372 -1.3507
  130OSM   C18F13983   0.171   5.308   5.189 -0.1501  0.5337 -0.1361
  130OSM   H18F13984   0.091   5.245   5.145 -0.7374  2.0562 -1.3317
  130OSM   H18G13985   0.156   5.351   5.290  0.0196  0.6846 -0.1752
  130OSM   H18H13986   0.262   5.243   5.187 -0.9917 -0.6895 -1.8232
  131OSM      N13987   4.149   3.172   2.734  0.5014  0.4325  0.5913
  131OSM    C1513988   4.095   3.303   2.759  0.4347 -0.5687 -0.7783
  131OSM   H15A13989   4.027   3.334   2.681  2.0108 -0.0757 -2.0304
  131OSM   H15B13990   4.162   3.388   2.761  0.2735 -0.4353 -0.9562
  131OSM   H15C13991   4.049   3.313   2.856 -2.0354  0.6199 -1.9782
  131OSM    C1413992   4.243   3.146   2.844 -1.1386 -0.1265 -0.5242
  131OSM   H14A13993   4.327   3.213   2.834 -0.3783 -1.0194 -0.2580
  131OSM   H14B13994   4.278   3.044   2.837  0.2199  0.1470  1.3569
  131OSM   H14C13995   4.208   3.149   2.946  2.0381  1.3870  0.6341
  131OSM    C1313996   4.036   3.076   2.744 -0.6455  0.3015  0.0876
  131OSM   H13A13997   3.986   3.070   2.839  2.1621 -0.1866  1.6405
  131OSM   H13B13998   4.072   2.975   2.729 -1.3088 -0.1044  1.1471
  131OSM   H13C13999   3.961   3.095   2.669 -1.6560  1.2249  1.3113
  131OSM    C1214000   4.212   3.160   2.600  0.2146  0.1036  0.1324
  131OSM   H12A14001   4.135   3.179   2.527  0.1414 -2.5192 -0.5991
  131OSM   H12B14002   4.220   3.055   2.577 -0.0215 -0.0484  0.7183
  131OSM    C1114003   4.332   3.242   2.561  0.2088 -0.0884  0.0500
  131OSM   H11A14004   4.312   3.351   2.553 -2.1104 -0.4032  0.6958
  131OSM   H11B14005   4.367   3.206   2.461  0.7513  0.5731 -0.0019
  131OSM      P14006   4.570   3.149   2.648  0.1763  0.2475 -0.2831
  131OSM    O1314007   4.543   3.011   2.611  0.0508 -0.1047 -0.2194
  131OSM    O1414008   4.667   3.213   2.559  0.0082  0.3469 -0.2263
  131OSM    O1114009   4.629   3.146   2.796  0.4034 -0.1929 -0.1808
  131OSM    O1214010   4.437   3.234   2.658 -0.2884 -0.1315  0.1194
  131OSM    C1S14011   4.644   3.269   2.871  0.0835  0.3690  0.3023
  131OSM    H1S14012   4.566   3.346   2.850 -0.4002  0.7318  3.0038
  131OSM    H1T14013   4.741   3.318   2.850 -0.1980 -0.5793 -4.1722
  131OSM     NF14014   4.656   3.359   3.104 -0.5922  0.5109  0.4548
  131OSM    HNF14015   4.742   3.408   3.101 -0.8925  1.4326  3.4700
  131OSM    C2S14016   4.655   3.239   3.020 -0.0331  0.0178  0.2120
  131OSM    H2S14017   4.566   3.174   3.038 -0.9709  0.0463 -3.6175
  131OSM    C3S14018   4.774   3.143   3.043  0.1461  0.1911  0.0751
  131OSM    H3S14019   4.864   3.187   2.995 -0.2405  0.4579 -0.4124
  131OSM     O314020   4.752   3.011   2.988 -0.7602  0.2086  0.9435
  131OSM    HO314021   4.668   3.013   2.942 -0.4238 -0.0759  0.3072
  131OSM    C4S14022   4.795   3.122   3.196  0.6069  0.1113  0.1434
  131OSM    H4S14023   4.706   3.084   3.249  1.1706  0.1139  1.1244
  131OSM    C5S14024   4.909   3.136   3.263 -0.0733 -0.3789  0.2106
  131OSM    H5S14025   5.003   3.162   3.213 -0.1787  1.5153  0.9283
  131OSM    C6S14026   4.925   3.104   3.410  0.1592  0.5319 -0.1971
  131OSM    H6S14027   4.963   3.196   3.460 -0.2914  0.1579  0.8485
  131OSM    H6T14028   5.008   3.031   3.420 -0.8698 -0.4525  1.5474
  131OSM    C7S14029   4.800   3.055   3.480 -0.3438 -0.4365 -0.9199
  131OSM    H7S14030   4.741   2.979   3.423 -0.5797  0.6258 -2.1493
  131OSM    H7T14031   4.728   3.139   3.492 -0.7582 -0.7978 -0.8483
  131OSM    C8S14032   4.828   3.007   3.628 -0.7736  0.9259  0.4358
  131OSM    H8S14033   4.884   3.094   3.668  1.7251  0.4259 -1.6856
  131OSM    H8T14034   4.905   2.926   3.630  0.1575  1.7005 -1.3412
  131OSM    C9S14035   4.711   2.969   3.703  0.7542 -0.1560  0.0019
  131OSM    H9S14036   4.653   2.896   3.643 -2.1961  2.1165 -0.1499
  131OSM    H9T14037   4.646   3.058   3.716  2.6713  1.1370  1.4544
  131OSM   C10S14038   4.732   2.916   3.849 -0.6519 -0.0091 -0.2242
  131OSM   H10S14039   4.778   2.817   3.831  1.0395  1.1974 -3.6169
  131OSM   H10T14040   4.632   2.897   3.892 -0.3358  0.6929  0.8566
  131OSM   C11S14041   4.814   3.010   3.930  0.5287 -0.5565 -0.3525
  131OSM   H11S14042   4.780   3.114   3.912 -0.5349 -0.8477 -0.1207
  131OSM   H11T14043   4.921   3.003   3.901 -0.1394 -0.1129 -3.1904
  131OSM   C12S14044   4.798   2.985   4.083  0.4381 -0.2324 -0.2858
  131OSM   H12S14045   4.834   2.883   4.108  0.0422  0.0044  1.4061
  131OSM   H12T14046   4.692   2.990   4.117  1.3535 -1.0953  3.0546
  131OSM   C13S14047   4.866   3.092   4.173  0.1066 -0.1839  0.3577
  131OSM   H13S14048   4.835   3.196   4.150  1.4760 -0.2214 -2.0359
  131OSM   H13T14049   4.977   3.095   4.171  0.0903  0.5866  0.1486
  131OSM   C14S14050   4.837   3.050   4.323  0.2717 -0.1948 -0.0644
  131OSM   H14S14051   4.874   2.946   4.331  0.1787 -0.2387 -0.1987
  131OSM   H14T14052   4.727   3.054   4.337  0.2434  0.4603 -0.4110
  131OSM   C15S14053   4.899   3.137   4.431 -0.6519  0.0983 -1.0975
  131OSM   H15S14054   5.007   3.158   4.418 -0.3135  0.2485  1.5035
  131OSM   H15T14055   4.907   3.069   4.518  1.3959  0.5335 -0.9142
  131OSM   C16S14056   4.820   3.270   4.463 -0.5061  0.1526  0.3661
  131OSM   H16S14057   4.721   3.240   4.503 -0.3431 -1.1697 -0.1720
  131OSM   H16T14058   4.806   3.317   4.363 -0.4989 -1.7352 -0.5682
  131OSM   C17S14059   4.888   3.351   4.578 -0.0020  0.3069  0.3467
  131OSM   H17S14060   4.989   3.390   4.554  1.2567 -2.0166  1.5689
  131OSM   H17T14061   4.903   3.270   4.652  1.5514  0.6852  0.4713
  131OSM   C18S14062   4.805   3.461   4.639 -0.4419 -0.3634 -0.3896
  131OSM   H18S14063   4.703   3.422   4.657  0.0900 -2.0972 -0.9076
  131OSM   H18T14064   4.795   3.554   4.579 -1.2756  1.1590  1.9665
  131OSM   H18U14065   4.852   3.488   4.736 -3.5052  3.3845  0.2934
  131OSM    C1F14066   4.538   3.419   3.117 -0.1507 -0.7965  0.3361
  131OSM     OF14067   4.436   3.358   3.089 -0.0652 -0.3019 -0.1270
  131OSM    C2F14068   4.531   3.556   3.179  0.2179  0.3423  0.6224
  131OSM    H2F14069   4.424   3.585   3.183  0.4224  1.5419 -1.2147
  131OSM    H2G14070   4.584   3.635   3.122 -0.6113  1.0218  0.7843
  131OSM    C3F14071   4.592   3.559   3.318  0.3221  0.7648  0.2249
  131OSM    H3F14072   4.601   3.664   3.351  0.5434  0.8357 -0.0519
  131OSM    H3G14073   4.697   3.522   3.311 -0.3722 -1.0644 -1.3473
  131OSM    C4F14074   4.527   3.472   3.424  0.8147 -0.0926  0.0124
  131OSM    H4F14075   4.546   3.366   3.395 -1.2823 -0.7147  0.6981
  131OSM    H4G14076   4.416   3.481   3.421  0.3665 -2.5538  2.9968
  131OSM    C5F14077   4.566   3.504   3.567  0.0425  0.4176  0.4570
  131OSM    H5F14078   4.558   3.614   3.575  0.3346  0.5017 -0.3089
  131OSM    H5G14079   4.672   3.480   3.590  0.0282  0.0839  0.1764
  131OSM    C6F14080   4.477   3.452   3.687  0.1448  0.2808  0.8331
  131OSM    H6F14081   4.370   3.462   3.656  0.6921  0.6033 -1.0650
  131OSM    H6G14082   4.482   3.518   3.776  0.5517  0.1878  0.8823
  131OSM    C7F14083   4.518   3.306   3.726  0.1146  0.7926 -1.0115
  131OSM    H7F14084   4.618   3.302   3.772 -0.0379 -0.4234 -0.7306
  131OSM    H7G14085   4.522   3.244   3.634 -0.5541 -2.7049  1.1324
  131OSM    C8F14086   4.422   3.238   3.829 -0.0285  0.1648 -0.3123
  131OSM    H8F14087   4.470   3.141   3.855  0.4529  0.2856 -0.7467
  131OSM    H8G14088   4.329   3.211   3.774  1.5242 -1.0460 -2.4788
  131OSM    C9F14089   4.387   3.326   3.949 -0.8075 -0.4323  0.1164
  131OSM    H9F14090   4.354   3.428   3.923 -2.8149 -1.3551 -1.2106
  131OSM   C10F14091   4.421   3.301   4.077  1.0553  0.4206  0.3357
  131OSM   H10F14092   4.390   3.370   4.157  1.7879  0.6951  0.3925
  131OSM   C11F14093   4.478   3.177   4.126  0.1127  0.2929  0.1369
  131OSM   H11F14094   4.574   3.205   4.175 -0.3183  0.9923  0.6116
  131OSM   H11G14095   4.496   3.103   4.046 -0.0355  1.8259 -1.3706
  131OSM   C12F14096   4.396   3.121   4.245  0.6213 -0.2012  0.4759
  131OSM   H12F14097   4.390   3.193   4.329 -1.3379  0.4309 -0.1503
  131OSM   H12G14098   4.453   3.032   4.280  2.3879  0.0101 -1.6370
  131OSM   C13F14099   4.257   3.074   4.193 -0.2956  0.1003 -0.5450
  131OSM   H13F14100   4.269   2.980   4.136  1.5712  1.2303 -2.1225
  131OSM   H13G14101   4.201   3.152   4.138 -0.6202 -0.8494 -1.5871
  131OSM   C14F14102   4.166   3.052   4.309 -1.0052 -0.0246 -0.6627
  131OSM   H14F14103   4.074   3.112   4.292 -1.2113 -0.5987 -1.6280
  131OSM   H14G14104   4.211   3.100   4.399 -3.1743  0.9263 -0.0173
  131OSM   C15F14105   4.123   2.904   4.344 -0.4259  0.6774  0.3297
  131OSM   H15F14106   4.202   2.838   4.303  0.5663  3.2394 -2.2835
  131OSM   H15G14107   4.039   2.873   4.280  0.0300  1.2585 -0.5778
  131OSM   C16F14108   4.096   2.877   4.494 -0.4227  0.6086  0.2706
  131OSM   H16F14109   4.000   2.921   4.530 -0.7318 -1.9412  2.9009
  131OSM   H16G14110   4.176   2.928   4.551  0.8956 -0.8350 -0.2237
  131OSM   C17F14111   4.100   2.732   4.548  0.4793  0.0356 -0.5759
  131OSM   H17F14112   4.202   2.690   4.546  0.1517 -0.7699 -0.7233
  131OSM   H17G14113   4.034   2.665   4.489  0.3244 -1.3171  1.0465
  131OSM   C18F14114   4.063   2.725   4.695  0.3237 -0.1565 -0.5563
  131OSM   H18F14115   4.119   2.793   4.763  0.3097 -1.1335  0.4808
  131OSM   H18G14116   4.076   2.624   4.741  1.0711  0.7507  1.3457
  131OSM   H18H14117   3.959   2.763   4.704  0.6811  0.6100  0.5980
  132OSM      N14118   3.740   3.773   2.537 -0.3468  0.0625 -0.6742
  132OSM    C1514119   3.784   3.894   2.611 -0.0681  0.0719  0.2962
  132OSM   H15A14120   3.697   3.958   2.605  1.5873  2.4944  0.7309
  132OSM   H15B14121   3.859   3.942   2.550 -0.7575 -0.4334 -0.9876
  132OSM   H15C14122   3.833   3.860   2.701 -2.6881 -2.7394  0.8212
  132OSM    C1414123   3.613   3.728   2.605 -0.2902 -0.5131  0.4475
  132OSM   H14A14124   3.524   3.784   2.579  1.8630  1.9123 -2.4104
  132OSM   H14B14125   3.629   3.734   2.711  1.5461 -1.6321  0.2759
  132OSM   H14C14126   3.604   3.625   2.573  3.9459 -1.1957  0.8959
  132OSM    C1314127   3.700   3.820   2.397  0.3041 -0.3150 -0.1132
  132OSM   H13A14128   3.660   3.739   2.338  2.2268 -0.4206 -1.3733
  132OSM   H13B14129   3.782   3.870   2.348  0.2988 -0.7951 -0.6202
  132OSM   H13C14130   3.627   3.898   2.407 -0.1099 -0.4300 -1.8915
  132OSM    C1214131   3.846   3.671   2.521 -0.0468  0.0791  0.0156
  132OSM   H12A14132   3.924   3.710   2.458  0.7435 -1.9037 -0.2938
  132OSM   H12B14133   3.809   3.582   2.472 -0.7859  0.1502  0.4228
  132OSM    C1114134   3.908   3.616   2.651  0.3058 -1.2408 -0.5420
  132OSM   H11A14135   3.963   3.525   2.619 -2.5882 -3.1944 -0.3821
  132OSM   H11B14136   3.828   3.577   2.717 -1.2249 -0.0699 -1.6089
  132OSM      P14137   4.140   3.733   2.686  0.3891  0.2516 -0.0160
  132OSM    O1314138   4.196   3.604   2.643 -0.1811  0.0643  0.1678
  132OSM    O1414139   4.141   3.845   2.588 -0.4288  0.5927 -0.1767
  132OSM    O1114140   4.190   3.778   2.828 -0.2471 -0.5336  0.1312
  132OSM    O1214141   3.986   3.711   2.723  0.3449  0.4200  0.9235
  132OSM    C1S14142   4.143   3.905   2.874 -0.0864 -0.2877 -0.6388
  132OSM    H1S14143   4.033   3.917   2.877 -0.0020  0.6114 -1.0810
  132OSM    H1T14144   4.195   3.992   2.830  2.0720 -0.4661  1.3171
  132OSM     NF14145   4.094   4.023   3.090  0.1739  0.0053 -0.0943
  132OSM    HNF14146   4.143   4.096   3.138  1.9688 -3.1256  3.3840
  132OSM    C2S14147   4.177   3.911   3.030 -0.3708 -0.6966 -0.3434
  132OSM    H2S14148   4.141   3.813   3.067 -0.3046 -0.6436 -0.1390
  132OSM    C3S14149   4.331   3.915   3.047  0.1538  0.3676 -0.2153
  132OSM    H3S14150   4.376   4.002   2.994  1.6849  1.4265  2.5983
  132OSM     O314151   4.403   3.804   2.988 -0.1179  0.1694  0.2094
  132OSM    HO314152   4.330   3.775   2.933 -1.3402  4.4062 -0.7230
  132OSM    C4S14153   4.375   3.930   3.189  0.1352  0.2431  0.1983
  132OSM    H4S14154   4.431   4.021   3.218 -0.1248 -0.2798  2.5447
  132OSM    C5S14155   4.372   3.832   3.289 -0.3118 -0.3223  0.3136
  132OSM    H5S14156   4.334   3.732   3.263 -1.0114  0.9865 -5.0242
  132OSM    C6S14157   4.414   3.866   3.429 -0.6398  0.5957 -0.0009
  132OSM    H6S14158   4.524   3.862   3.437 -0.7571  0.2548  2.2060
  132OSM    H6T14159   4.385   3.775   3.486 -0.4194 -0.1591 -1.0789
  132OSM    C7S14160   4.371   4.001   3.493 -0.8093 -0.5480  0.2038
  132OSM    H7S14161   4.417   4.082   3.433  0.5301 -1.5681 -0.1964
  132OSM    H7T14162   4.427   4.012   3.588  0.0121 -1.7259 -0.1067
  132OSM    C8S14163   4.222   4.034   3.492  0.0909 -0.0130  0.1458
  132OSM    H8S14164   4.169   3.953   3.547 -0.5215  1.3995  1.7160
  132OSM    H8T14165   4.188   4.032   3.386  2.7751  0.6720 -0.7978
  132OSM    C9S14166   4.181   4.170   3.556  0.3747  0.7348  0.7365
  132OSM    H9S14167   4.089   4.213   3.511 -0.3589 -0.7544  0.7557
  132OSM    H9T14168   4.269   4.232   3.529  1.0075 -1.0565 -1.6476
  132OSM   C10S14169   4.168   4.163   3.712 -0.3559  0.1537  0.6523
  132OSM   H10S14170   4.069   4.118   3.735 -1.9184  2.6582 -0.8283
  132OSM   H10T14171   4.151   4.269   3.740 -1.5626  0.4642 -1.1096
  132OSM   C11S14172   4.292   4.111   3.784 -0.2338 -0.2559  0.1018
  132OSM   H11S14173   4.385   4.164   3.754  1.1365 -2.1700  0.7620
  132OSM   H11T14174   4.308   4.001   3.771  1.9337 -0.0118  0.4016
  132OSM   C12S14175   4.269   4.117   3.942 -0.1971  0.2948  0.2875
  132OSM   H12S14176   4.267   4.220   3.983  2.1677  0.1378  0.9488
  132OSM   H12T14177   4.364   4.083   3.989  0.8231  1.6758 -0.6875
  132OSM   C13S14178   4.141   4.033   3.986 -0.4423  0.1185 -0.3186
  132OSM   H13S14179   4.139   3.937   3.930  0.2196  0.8037 -1.5590
  132OSM   H13T14180   4.056   4.096   3.953  0.2497  2.1045  1.4362
  132OSM   C14S14181   4.118   3.998   4.130 -0.0641  0.0454  0.1891
  132OSM   H14S14182   4.207   3.936   4.154  2.5844  2.1295 -3.2302
  132OSM   H14T14183   4.024   3.939   4.136 -1.4618  2.2890  2.9357
  132OSM   C15S14184   4.124   4.113   4.235  0.3852  0.1138 -0.4921
  132OSM   H15S14185   4.074   4.206   4.199 -1.7384 -0.2252  1.3337
  132OSM   H15T14186   4.226   4.153   4.250  0.0016  2.3469 -3.0262
  132OSM   C16S14187   4.054   4.082   4.366 -0.0376  0.1184  0.2629
  132OSM   H16S14188   4.109   3.992   4.401 -1.0079 -0.7045 -0.2828
  132OSM   H16T14189   3.949   4.049   4.352  0.4984 -0.8711 -1.8013
  132OSM   C17S14190   4.066   4.190   4.478  0.0060 -0.6310 -0.0903
  132OSM   H17S14191   4.045   4.139   4.575  2.8293 -1.8783 -0.0448
  132OSM   H17T14192   3.992   4.271   4.460 -0.2916 -1.3231 -2.3588
  132OSM   C18S14193   4.207   4.250   4.497 -0.1182  0.3749 -0.3095
  132OSM   H18S14194   4.222   4.296   4.597  0.6518  1.6998 -1.0095
  132OSM   H18T14195   4.221   4.332   4.424  1.3603 -1.1125 -1.7539
  132OSM   H18U14196   4.289   4.176   4.496 -0.4846 -0.0869  0.9654
  132OSM    C1F14197   3.964   4.007   3.109  0.1635 -0.2694  0.1240
  132OSM     OF14198   3.904   3.901   3.094  0.5288 -0.4455  0.2640
  132OSM    C2F14199   3.883   4.125   3.138 -0.2095 -0.1290 -0.0885
  132OSM    H2F14200   3.782   4.118   3.092  0.3510  1.3858 -1.6421
  132OSM    H2G14201   3.930   4.209   3.084 -0.7045  0.4827  0.4212
  132OSM    C3F14202   3.870   4.154   3.286  0.3347  0.0989 -0.1387
  132OSM    H3F14203   3.797   4.237   3.294 -1.1262 -1.1907  0.4192
  132OSM    H3G14204   3.965   4.183   3.335 -0.5526 -0.8810  2.3426
  132OSM    C4F14205   3.810   4.027   3.355 -0.0427  0.8314 -0.4926
  132OSM    H4F14206   3.874   3.936   3.353 -0.5353  0.4761 -2.2438
  132OSM    H4G14207   3.721   3.994   3.296 -0.4253 -0.7778  0.9093
  132OSM    C5F14208   3.773   4.053   3.502 -0.3192  0.9537  0.3322
  132OSM    H5F14209   3.690   4.124   3.522  0.0855  1.9881 -1.4365
  132OSM    H5G14210   3.858   4.095   3.559 -1.4821  0.7099  2.3411
  132OSM    C6F14211   3.743   3.926   3.581  0.1814 -0.9355  0.3708
  132OSM    H6F14212   3.834   3.878   3.624 -2.2436 -2.6650  4.0490
  132OSM    H6G14213   3.691   3.849   3.521  2.0919 -1.3133 -0.9104
  132OSM    C7F14214   3.652   3.947   3.699  0.9096  0.8174 -0.3633
  132OSM    H7F14215   3.553   3.968   3.652  0.6504 -2.1185 -1.3129
  132OSM    H7G14216   3.689   4.036   3.755  1.0319 -0.6614  2.0542
  132OSM    C8F14217   3.639   3.826   3.800 -0.1942  0.2918  0.6500
  132OSM    H8F14218   3.740   3.793   3.830  1.3986  1.7561 -2.5707
  132OSM    H8G14219   3.590   3.745   3.741 -1.6481  1.6376 -0.0871
  132OSM    C9F14220   3.542   3.863   3.913 -0.6533 -0.7892  0.6177
  132OSM    H9F14221   3.440   3.869   3.872  0.2465  0.8212 -1.5830
  132OSM   C10F14222   3.556   3.875   4.044  0.2886  0.4804  0.0273
  132OSM   H10F14223   3.462   3.892   4.099  0.3022  2.4265 -0.4888
  132OSM   C11F14224   3.684   3.875   4.126 -0.0898 -0.6668 -0.4636
  132OSM   H11F14225   3.692   3.984   4.148 -0.0905 -0.9628  1.0696
  132OSM   H11G14226   3.772   3.834   4.072  0.4165 -0.7457  0.4044
  132OSM   C12F14227   3.668   3.773   4.239 -0.4913 -0.2364  0.1591
  132OSM   H12F14228   3.685   3.671   4.198  1.1228  0.7108 -1.6721
  132OSM   H12G14229   3.562   3.771   4.274 -0.9447  1.8186 -0.9412
  132OSM   C13F14230   3.760   3.789   4.355 -0.4221  0.1573  0.0096
  132OSM   H13F14231   3.865   3.806   4.326 -0.6072 -0.4625 -1.0965
  132OSM   H13G14232   3.755   3.698   4.419  1.0108  1.4119  2.0172
  132OSM   C14F14233   3.713   3.914   4.440  0.1187 -0.3535 -0.1531
  132OSM   H14F14234   3.602   3.912   4.443  0.1504 -1.6579  1.6409
  132OSM   H14G14235   3.747   4.003   4.382  0.7393 -1.1511 -1.0362
  132OSM   C15F14236   3.770   3.916   4.582  0.1563 -0.1016  0.0350
  132OSM   H15F14237   3.879   3.899   4.572  0.1050 -0.9198  0.7356
  132OSM   H15G14238   3.719   3.832   4.635 -0.7879  0.5634  0.2055
  132OSM   C16F14239   3.737   4.044   4.654  0.0699  0.4424  0.2096
  132OSM   H16F14240   3.631   4.076   4.643  0.3376  1.4005  0.3115
  132OSM   H16G14241   3.805   4.119   4.608  0.9804 -0.2622  0.3677
  132OSM   C17F14242   3.792   4.048   4.797 -1.0163  0.0132 -0.5501
  132OSM   H17F14243   3.899   4.017   4.796 -0.5871  1.4428 -1.9520
  132OSM   H17G14244   3.751   3.969   4.863  0.1338 -2.0751 -2.2183
  132OSM   C18F14245   3.796   4.190   4.864  0.2726 -0.0952  0.3404
  132OSM   H18F14246   3.854   4.183   4.958  1.0449 -1.4864 -0.2054
  132OSM   H18G14247   3.693   4.230   4.873  0.5397  0.3633  1.6078
  132OSM   H18H14248   3.849   4.263   4.798  1.2131 -2.5061 -1.7511
  133OSM      N14249   1.991   4.679   2.608 -0.1919 -0.6273 -0.2391
  133OSM    C1514250   2.090   4.778   2.652  0.5046  0.0654 -0.2248
  133OSM   H15A14251   2.132   4.833   2.569  0.8185 -0.2136 -0.2576
  133OSM   H15B14252   2.180   4.737   2.697  0.5032  1.0710  0.7341
  133OSM   H15C14253   2.050   4.848   2.724  0.9643 -0.6174  0.7208
  133OSM    C1414254   1.855   4.742   2.607  0.0226 -0.6586 -0.3339
  133OSM   H14A14255   1.828   4.786   2.702  0.1252  0.7397 -0.9261
  133OSM   H14B14256   1.783   4.664   2.583 -0.4492  0.0446 -1.2776
  133OSM   H14C14257   1.843   4.828   2.543 -1.0645  0.7207  1.5947
  133OSM    C1314258   2.021   4.623   2.471  0.3468  1.2715  0.4824
  133OSM   H13A14259   1.943   4.564   2.426  1.1194  2.1053 -2.1556
  133OSM   H13B14260   2.109   4.560   2.470 -0.6036 -0.1028 -0.5767
  133OSM   H13C14261   2.040   4.699   2.397 -0.2600  1.1910  0.2445
  133OSM    C1214262   1.990   4.567   2.717 -0.0227 -0.4860 -0.3054
  133OSM   H12A14263   1.902   4.507   2.695  0.2706 -0.5664 -1.3424
  133OSM   H12B14264   1.968   4.607   2.815  0.8990 -0.5406 -0.0708
  133OSM    C1114265   2.114   4.480   2.730 -0.4587 -0.0009  0.1308
  133OSM   H11A14266   2.108   4.438   2.833  1.0722 -1.1025 -0.1901
  133OSM   H11B14267   2.203   4.545   2.721 -1.8309  1.9071 -0.1696
  133OSM      P14268   2.248   4.317   2.568  0.3262  0.2655 -0.3348
  133OSM    O1314269   2.209   4.208   2.476 -0.1608 -0.2341  0.6153
  133OSM    O1414270   2.317   4.429   2.504 -0.1145 -0.6889 -0.0201
  133OSM    O1114271   2.331   4.273   2.694  0.5166 -1.0593  0.0233
  133OSM    O1214272   2.115   4.378   2.628  0.5578 -0.2990  0.4011
  133OSM    C1S14273   2.301   4.142   2.751  0.0464  0.3789 -0.1761
  133OSM    H1S14274   2.348   4.062   2.689 -0.1260  0.4762 -0.4321
  133OSM    H1T14275   2.192   4.122   2.760  0.2718 -0.5945  0.5363
  133OSM     NF14276   2.337   3.988   2.940 -0.4150  0.4785 -0.2856
  133OSM    HNF14277   2.283   3.978   3.023 -0.5057  0.7459 -0.3095
  133OSM    C2S14278   2.362   4.121   2.893  0.5001 -0.1916 -0.1247
  133OSM    H2S14279   2.472   4.129   2.880  0.3498  3.1158 -0.4270
  133OSM    C3S14280   2.328   4.240   2.991  0.5223  0.6264  0.0396
  133OSM    H3S14281   2.217   4.230   3.000  0.7084 -0.8877  0.9642
  133OSM     O314282   2.345   4.375   2.947 -0.5729  0.2384  0.0751
  133OSM    HO314283   2.355   4.373   2.851 -1.7814  0.4483 -0.0677
  133OSM    C4S14284   2.393   4.211   3.124 -1.3848  0.1142 -0.3373
  133OSM    H4S14285   2.343   4.132   3.181 -2.7944  1.5488  0.4961
  133OSM    C5S14286   2.506   4.255   3.177 -0.0786 -0.4837 -0.0981
  133OSM    H5S14287   2.570   4.314   3.110 -1.2919  0.7765 -0.1872
  133OSM    C6S14288   2.557   4.229   3.313 -0.5076 -0.2378 -0.9404
  133OSM    H6S14289   2.663   4.200   3.306 -0.8047 -1.1605 -1.7804
  133OSM    H6T14290   2.510   4.138   3.357 -1.4592 -1.2739 -3.8619
  133OSM    C7S14291   2.505   4.345   3.401 -0.8770  0.4886 -0.0481
  133OSM    H7S14292   2.397   4.371   3.395 -0.7723  0.7960 -0.7677
  133OSM    H7T14293   2.570   4.432   3.377 -0.1139 -0.9665 -3.9572
  133OSM    C8S14294   2.540   4.306   3.544 -0.2604  0.6404  0.6036
  133OSM    H8S14295   2.647   4.280   3.556 -0.3418  0.2404  0.4856
  133OSM    H8T14296   2.480   4.217   3.573 -0.0306  0.5308  0.7456
  133OSM    C9S14297   2.499   4.410   3.649 -0.2647  0.0930  0.6989
  133OSM    H9S14298   2.400   4.452   3.622  0.1243  0.4772 -0.1527
  133OSM    H9T14299   2.574   4.492   3.647  1.3098 -1.0839  4.0905
  133OSM   C10S14300   2.510   4.351   3.785 -0.5323 -0.1425 -0.5755
  133OSM   H10S14301   2.536   4.430   3.858 -0.4232 -0.9654  0.3032
  133OSM   H10T14302   2.596   4.281   3.789  0.7864  1.3905 -0.9501
  133OSM   C11S14303   2.390   4.284   3.852  0.6704  0.2831 -0.4016
  133OSM   H11S14304   2.383   4.174   3.842 -1.1870  0.1265  1.7788
  133OSM   H11T14305   2.294   4.323   3.812  0.7242 -0.0999 -0.9083
  133OSM   C12S14306   2.400   4.304   4.004  0.1826  0.4113  0.2437
  133OSM   H12S14307   2.306   4.282   4.060  0.9710  1.8303  2.2326
  133OSM   H12T14308   2.423   4.411   4.022 -0.9472  0.6780  0.1468
  133OSM   C13S14309   2.507   4.230   4.083 -0.0399  0.9151  0.1311
  133OSM   H13S14310   2.611   4.242   4.049  0.1648 -1.0411 -0.0133
  133OSM   H13T14311   2.485   4.121   4.086 -0.7937  1.0742  0.8036
  133OSM   C14S14312   2.498   4.266   4.231 -0.4237  0.3401  0.4235
  133OSM   H14S14313   2.559   4.201   4.297  0.1371 -1.6763 -1.9111
  133OSM   H14T14314   2.394   4.260   4.269 -0.1325  1.1197  1.3724
  133OSM   C15S14315   2.552   4.408   4.261 -0.6355 -0.1236 -0.5462
  133OSM   H15S14316   2.617   4.453   4.183  0.8289 -0.4797  0.4326
  133OSM   H15T14317   2.620   4.403   4.348 -1.6861  0.3582  0.3331
  133OSM   C16S14318   2.444   4.504   4.295  0.0952  0.4017  0.5874
  133OSM   H16S14319   2.378   4.451   4.367  0.3181 -0.9360 -0.1597
  133OSM   H16T14320   2.372   4.521   4.211 -1.7253 -1.3778  1.6879
  133OSM   C17S14321   2.508   4.622   4.366 -0.8248 -0.7252  0.2887
  133OSM   H17S14322   2.568   4.587   4.453  0.0618 -0.1520 -0.0712
  133OSM   H17T14323   2.423   4.684   4.401  1.2088  1.0694  2.4046
  133OSM   C18S14324   2.587   4.722   4.274 -0.0538  0.4679 -0.7939
  133OSM   H18S14325   2.519   4.784   4.211  0.3346  2.0738  0.3283
  133OSM   H18T14326   2.652   4.663   4.205  0.2975  1.6349 -1.4922
  133OSM   H18U14327   2.654   4.786   4.335 -1.4493  1.1871  0.0257
  133OSM    C1F14328   2.383   3.874   2.883 -0.2682  0.4418 -0.4870
  133OSM     OF14329   2.451   3.879   2.781  0.0278  0.0810 -0.0129
  133OSM    C2F14330   2.352   3.742   2.952  0.4625 -0.3381  0.8127
  133OSM    H2F14331   2.312   3.682   2.868  1.5427  0.7333 -0.5261
  133OSM    H2G14332   2.276   3.760   3.030 -1.8118  0.5157 -1.4634
  133OSM    C3F14333   2.474   3.691   3.016 -0.1482 -1.0852  0.4598
  133OSM    H3F14334   2.565   3.678   2.954  0.6758  0.4245  1.2725
  133OSM    H3G14335   2.440   3.589   3.044 -1.5222 -0.7300  0.1540
  133OSM    C4F14336   2.510   3.759   3.156 -0.7386  0.6558  0.0605
  133OSM    H4F14337   2.421   3.751   3.222  0.3452  1.4033  1.6825
  133OSM    H4G14338   2.535   3.865   3.136  1.7060  0.0707 -0.2860
  133OSM    C5F14339   2.632   3.690   3.210  0.3998  0.1425  0.0893
  133OSM    H5F14340   2.718   3.679   3.140  2.0628  1.2380  1.8529
  133OSM    H5G14341   2.602   3.588   3.241  0.1233  0.1065 -0.2955
  133OSM    C6F14342   2.701   3.755   3.327 -0.0109  0.1005 -0.2378
  133OSM    H6F14343   2.724   3.859   3.295  1.1167 -0.3703 -1.0112
  133OSM    H6G14344   2.793   3.701   3.358 -1.2603 -1.8949  0.1735
  133OSM    C7F14345   2.609   3.756   3.441  0.0559  1.0147 -0.2300
  133OSM    H7F14346   2.573   3.651   3.451  1.2462  0.6207  0.0661
  133OSM    H7G14347   2.521   3.822   3.424 -1.3070 -0.7863 -0.5553
  133OSM    C8F14348   2.667   3.777   3.586  0.0648  0.6463  0.8667
  133OSM    H8F14349   2.756   3.713   3.604 -1.6411 -1.3311  2.9223
  133OSM    H8G14350   2.589   3.734   3.652  0.6818 -0.9332  0.6214
  133OSM    C9F14351   2.707   3.916   3.614 -0.2331 -0.1272  0.5749
  133OSM    H9F14352   2.739   3.972   3.525 -0.2805  1.5802  1.5884
  133OSM   C10F14353   2.694   3.990   3.725 -0.1285 -0.0876 -0.2463
  133OSM   H10F14354   2.733   4.092   3.734 -1.8536  0.4168  3.2914
  133OSM   C11F14355   2.651   3.921   3.853 -0.2245  0.1295  0.0923
  133OSM   H11F14356   2.629   3.813   3.840  3.0716 -0.7661  1.0837
  133OSM   H11G14357   2.555   3.964   3.889 -1.7613 -2.6329 -0.4226
  133OSM   C12F14358   2.760   3.933   3.955 -0.1843 -0.4354 -0.7695
  133OSM   H12F14359   2.797   4.038   3.965 -0.2222 -0.5003  0.1989
  133OSM   H12G14360   2.844   3.865   3.929 -0.1001 -1.1676  1.2018
  133OSM   C13F14361   2.715   3.895   4.096  0.2214  0.2005 -0.7262
  133OSM   H13F14362   2.728   3.784   4.100 -0.8333  0.0167 -1.8461
  133OSM   H13G14363   2.609   3.925   4.106  0.5459  1.2937 -0.5211
  133OSM   C14F14364   2.797   3.963   4.202  0.0952  0.3750 -0.1096
  133OSM   H14F14365   2.796   4.072   4.181 -1.3928  0.4619  0.2805
  133OSM   H14G14366   2.897   3.915   4.192 -1.0961 -2.2720 -0.0822
  133OSM   C15F14367   2.746   3.932   4.345  0.0863  0.5195 -0.5488
  133OSM   H15F14368   2.742   3.822   4.356  1.5891  0.4281 -0.7836
  133OSM   H15G14369   2.645   3.978   4.335  0.6016  1.6947 -0.5345
  133OSM   C16F14370   2.816   3.996   4.462 -0.3381 -0.0833  0.0973
  133OSM   H16F14371   2.912   3.942   4.479 -0.0924  0.4240  0.3400
  133OSM   H16G14372   2.752   3.972   4.550 -1.8203  1.3694 -0.5509
  133OSM   C17F14373   2.838   4.145   4.452 -0.2294 -0.2812 -0.4272
  133OSM   H17F14374   2.752   4.207   4.417 -0.6423  0.4395  1.7234
  133OSM   H17G14375   2.924   4.176   4.390 -1.0193 -1.8269 -2.4212
  133OSM   C18F14376   2.870   4.198   4.594  0.1528  0.1913 -0.3094
  133OSM   H18F14377   2.949   4.144   4.649  0.6449  0.4504 -0.7512
  133OSM   H18G14378   2.782   4.199   4.662  0.4433 -2.3284  0.1970
  133OSM   H18H14379   2.921   4.294   4.572  0.7261 -0.1706 -0.5844
  134OSM      N14380   2.180   2.202   2.589  0.0319  0.2606  1.2169
  134OSM    C1514381   2.294   2.236   2.675 -0.5678 -0.1370 -0.5590
  134OSM   H15A14382   2.345   2.151   2.718 -2.3745 -0.9054  0.1885
  134OSM   H15B14383   2.254   2.296   2.756  1.0272  1.7163 -1.0627
  134OSM   H15C14384   2.370   2.283   2.614 -0.0996  1.1363  0.9507
  134OSM    C1414385   2.134   2.333   2.528 -0.0306 -0.3497  0.6876
  134OSM   H14A14386   2.072   2.378   2.604 -1.4918 -1.5891  0.2905
  134OSM   H14B14387   2.069   2.316   2.443  0.0650  2.1812  0.0369
  134OSM   H14C14388   2.216   2.393   2.491 -0.4765 -0.9982 -1.4893
  134OSM    C1314389   2.240   2.113   2.488  0.0070 -0.3269 -0.2456
  134OSM   H13A14390   2.323   2.164   2.441 -0.3393  0.3167 -0.1630
  134OSM   H13B14391   2.169   2.100   2.409  2.5973  0.9315 -2.9887
  134OSM   H13C14392   2.274   2.017   2.524  1.3215 -0.5460 -1.9460
  134OSM    C1214393   2.066   2.133   2.660 -0.0257 -0.2142  0.0615
  134OSM   H12A14394   1.986   2.121   2.587 -2.5454  1.5225  2.3278
  134OSM   H12B14395   2.021   2.192   2.738  1.0166 -1.8572  1.9735
  134OSM    C1114396   2.090   1.996   2.729  0.1421 -0.0028  0.2705
  134OSM   H11A14397   1.994   1.959   2.770  1.1114 -1.9781  0.8975
  134OSM   H11B14398   2.162   2.013   2.812  1.1598 -0.2622 -0.5481
  134OSM      P14399   2.225   1.768   2.692 -0.0617 -0.5483  0.1884
  134OSM    O1314400   2.224   1.670   2.578 -0.5914 -0.3213 -0.5457
  134OSM    O1414401   2.356   1.809   2.749  0.4734 -0.2641 -0.4338
  134OSM    O1114402   2.135   1.721   2.810 -0.5472 -0.6634  0.2097
  134OSM    O1214403   2.141   1.895   2.637  1.0298 -0.4000  0.0303
  134OSM    C1S14404   2.009   1.664   2.788  0.1492  0.1066  0.3536
  134OSM    H1S14405   2.028   1.583   2.714 -1.6725 -1.6470  1.7147
  134OSM    H1T14406   1.933   1.732   2.744  0.6481  0.7321  0.4536
  134OSM     NF14407   1.819   1.543   2.887 -0.0667 -0.7799  0.5495
  134OSM    HNF14408   1.737   1.600   2.880 -0.1606 -0.6928  2.0252
  134OSM    C2S14409   1.953   1.604   2.920  0.7236 -0.1304  0.3412
  134OSM    H2S14410   2.011   1.522   2.968  0.5223  0.4877  1.6800
  134OSM    C3S14411   1.930   1.714   3.030  0.1962 -0.1983  0.5193
  134OSM    H3S14412   1.848   1.776   2.987 -0.5643 -0.7608  1.1271
  134OSM     O314413   2.038   1.805   3.057  0.8038  0.3435 -0.2611
  134OSM    HO314414   2.103   1.773   2.994  0.8862  0.5750 -0.2914
  134OSM    C4S14415   1.882   1.661   3.164 -0.0571 -0.7412  0.6852
  134OSM    H4S14416   1.772   1.658   3.170 -0.0818 -3.7637  0.0073
  134OSM    C5S14417   1.957   1.622   3.271  0.2052  0.2919 -0.3586
  134OSM    H5S14418   2.065   1.633   3.284  0.2769 -0.4019 -0.3695
  134OSM    C6S14419   1.878   1.577   3.395  0.0704 -0.0219 -0.1059
  134OSM    H6S14420   1.909   1.643   3.479 -0.1196 -0.3671  0.2385
  134OSM    H6T14421   1.926   1.479   3.418 -0.0180  0.1527  0.8733
  134OSM    C7S14422   1.727   1.550   3.395  0.0285  0.0933 -0.8721
  134OSM    H7S14423   1.701   1.480   3.313  2.0095 -3.5485  1.3227
  134OSM    H7T14424   1.670   1.642   3.371  0.4603  0.6046  0.0208
  134OSM    C8S14425   1.662   1.480   3.520 -0.6373 -0.5017  0.5906
  134OSM    H8S14426   1.552   1.477   3.500 -0.1990  1.7146 -2.9643
  134OSM    H8T14427   1.667   1.550   3.607 -2.5828 -1.1539  1.2869
  134OSM    C9S14428   1.716   1.345   3.555  0.5377 -0.7010 -0.1067
  134OSM    H9S14429   1.825   1.333   3.576  0.6150  1.6415  1.1541
  134OSM    H9T14430   1.684   1.270   3.480  0.3019  0.7104 -1.4505
  134OSM   C10S14431   1.643   1.310   3.691  0.8464 -0.1355 -0.1614
  134OSM   H10S14432   1.655   1.201   3.706 -0.6435 -0.4023 -0.7332
  134OSM   H10T14433   1.533   1.326   3.684  0.5232 -2.1262 -0.2238
  134OSM   C11S14434   1.692   1.374   3.828 -0.3038 -0.1150  0.2110
  134OSM   H11S14435   1.691   1.485   3.825  0.1257 -0.1140 -2.3464
  134OSM   H11T14436   1.797   1.347   3.851  0.1269  2.5868  1.9122
  134OSM   C12S14437   1.610   1.323   3.939 -0.6170  0.0560  0.1567
  134OSM   H12S14438   1.615   1.212   3.939 -0.9532  0.0047 -1.7005
  134OSM   H12T14439   1.504   1.350   3.921  0.0895  1.5051 -2.3356
  134OSM   C13S14440   1.651   1.387   4.077 -0.0447 -0.3880  0.4956
  134OSM   H13S14441   1.617   1.492   4.072 -0.7045 -0.4884  2.2368
  134OSM   H13T14442   1.762   1.389   4.086  0.0518 -1.5633 -0.1841
  134OSM   C14S14443   1.582   1.322   4.199 -0.4355 -0.0397 -0.0752
  134OSM   H14S14444   1.603   1.214   4.211 -0.4943  0.0927  1.3903
  134OSM   H14T14445   1.472   1.333   4.183 -0.2306  1.4647 -0.6623
  134OSM   C15S14446   1.616   1.413   4.322  0.0785  0.3595 -0.4718
  134OSM   H15S14447   1.552   1.387   4.409  0.4164  2.0694  0.3304
  134OSM   H15T14448   1.585   1.515   4.293  1.0327  0.2200 -2.0908
  134OSM   C16S14449   1.761   1.411   4.368  0.1269  0.0125  0.0298
  134OSM   H16S14450   1.832   1.460   4.298  0.2589  1.4942  1.1613
  134OSM   H16T14451   1.789   1.304   4.374  1.7860  0.5038  2.1684
  134OSM   C17S14452   1.776   1.471   4.503 -0.8045  0.0234  0.3522
  134OSM   H17S14453   1.878   1.447   4.541 -0.7119  1.0442  0.7822
  134OSM   H17T14454   1.718   1.424   4.585  1.5334 -1.2766  1.3550
  134OSM   C18S14455   1.755   1.625   4.504 -0.2405  0.3294 -0.1118
  134OSM   H18S14456   1.831   1.672   4.438 -1.2156 -0.6589 -2.0128
  134OSM   H18T14457   1.767   1.659   4.609  0.7717  1.1502 -0.4694
  134OSM   H18U14458   1.654   1.643   4.463 -0.8275  0.2537  1.2719
  134OSM    C1F14459   1.808   1.426   2.819 -0.2200 -0.9903 -0.1048
  134OSM     OF14460   1.895   1.340   2.814 -0.3695 -0.4744  0.5508
  134OSM    C2F14461   1.681   1.413   2.744  0.4221  0.4513 -0.2373
  134OSM    H2F14462   1.666   1.305   2.721  1.3338 -0.2791  2.2439
  134OSM    H2G14463   1.680   1.479   2.655 -1.3301 -1.7125 -1.9547
  134OSM    C3F14464   1.566   1.450   2.853 -0.3079 -0.5026  0.2211
  134OSM    H3F14465   1.472   1.456   2.793 -0.5908  0.3204  0.7224
  134OSM    H3G14466   1.572   1.555   2.889 -0.5407  0.0896 -1.4072
  134OSM    C4F14467   1.566   1.346   2.966  0.1059 -0.0206  0.6256
  134OSM    H4F14468   1.664   1.359   3.016  1.8857 -0.3543 -2.5284
  134OSM    H4G14469   1.567   1.246   2.918  3.5050  1.3504 -2.6823
  134OSM    C5F14470   1.451   1.355   3.063  0.3403 -0.4286  0.8013
  134OSM    H5F14471   1.351   1.338   3.020 -0.1044  0.7748  1.3211
  134OSM    H5G14472   1.455   1.454   3.113  1.6643  0.4788 -0.9900
  134OSM    C6F14473   1.479   1.255   3.179  0.1210 -1.6133  0.0980
  134OSM    H6F14474   1.578   1.266   3.228  0.4652  0.5758 -0.9383
  134OSM    H6G14475   1.475   1.161   3.120 -1.5703 -1.2743 -0.3823
  134OSM    C7F14476   1.365   1.251   3.286  0.1355 -0.3742  0.4116
  134OSM    H7F14477   1.272   1.278   3.232 -1.0236  0.6649  2.7830
  134OSM    H7G14478   1.390   1.329   3.361 -0.4700  0.3759 -0.1507
  134OSM    C8F14479   1.342   1.113   3.349  0.2223  0.0051 -0.1400
  134OSM    H8F14480   1.340   1.043   3.262 -0.4516  1.2883 -1.2010
  134OSM    H8G14481   1.242   1.105   3.396  0.2410 -1.2199 -0.2717
  134OSM    C9F14482   1.457   1.071   3.440 -0.0150 -0.2857 -0.1228
  134OSM    H9F14483   1.556   1.100   3.400 -0.2544  1.3327  0.3639
  134OSM   C10F14484   1.446   1.022   3.565 -0.3834 -0.0304 -0.2310
  134OSM   H10F14485   1.545   1.003   3.609 -1.0581 -2.0331  0.5650
  134OSM   C11F14486   1.317   0.998   3.637  0.1470  0.0850  0.8053
  134OSM   H11F14487   1.285   0.892   3.635  2.2468 -0.6845  2.7647
  134OSM   H11G14488   1.233   1.052   3.590 -0.3421 -0.6701  0.7905
  134OSM   C12F14489   1.329   1.040   3.789 -0.6800  0.0885  0.7445
  134OSM   H12F14490   1.226   1.043   3.832 -2.1681  0.6764 -2.5066
  134OSM   H12G14491   1.370   1.143   3.793 -0.4590  0.3374 -3.4359
  134OSM   C13F14492   1.414   0.942   3.873 -0.2370 -0.4708  0.1257
  134OSM   H13F14493   1.520   0.945   3.841  0.4390 -1.8800  2.0529
  134OSM   H13G14494   1.376   0.841   3.848  1.3962 -0.7450 -1.4201
  134OSM   C14F14495   1.405   0.962   4.025 -0.6070 -0.1243  0.0927
  134OSM   H14F14496   1.448   1.061   4.049 -2.2735  0.2548  1.7483
  134OSM   H14G14497   1.446   0.878   4.086 -3.1625 -1.7836 -0.3297
  134OSM   C15F14498   1.261   0.950   4.077 -0.0567  0.8225  0.2886
  134OSM   H15F14499   1.215   0.855   4.042  1.0487  0.3106  0.1534
  134OSM   H15G14500   1.198   1.027   4.028 -1.4308 -0.2828  0.2642
  134OSM   C16F14501   1.239   0.967   4.231 -0.7838 -0.2215  0.3562
  134OSM   H16F14502   1.328   1.034   4.228 -0.8284 -0.1798 -1.0718
  134OSM   H16G14503   1.258   0.866   4.273 -1.0273 -0.3745  0.1048
  134OSM   C17F14504   1.113   1.036   4.265  0.2168  0.3583 -0.4661
  134OSM   H17F14505   1.041   0.982   4.200 -0.4804  3.0212 -2.0649
  134OSM   H17G14506   1.107   1.140   4.228 -1.2706 -0.2609 -2.0957
  134OSM   C18F14507   1.077   1.029   4.418 -0.2097  0.2210  0.4250
  134OSM   H18F14508   0.974   1.068   4.434 -0.5591 -0.5187  0.0165
  134OSM   H18G14509   1.151   1.075   4.487  1.8503  0.3417 -1.7154
  134OSM   H18H14510   1.063   0.920   4.431 -0.5423  0.2856  0.6164
  135OSM      N14511   3.888   4.675   2.553 -0.0473  0.3716  0.7815
  135OSM    C1514512   3.932   4.536   2.505 -1.1420  0.3873 -0.3298
  135OSM   H15A14513   3.861   4.463   2.540  1.3190 -1.6830  0.6392
  135OSM   H15B14514   4.024   4.521   2.560 -1.4982  0.0860  0.1942
  135OSM   H15C14515   3.952   4.526   2.399 -0.7124 -1.3022 -0.1188
  135OSM    C1414516   3.966   4.782   2.478 -0.1385 -0.2821  0.5431
  135OSM   H14A14517   3.928   4.881   2.499 -0.7573 -0.7863  1.9414
  135OSM   H14B14518   3.952   4.771   2.371 -0.9716 -3.5411  0.8881
  135OSM   H14C14519   4.072   4.790   2.498  0.1662 -0.1497 -0.9633
  135OSM    C1314520   3.743   4.683   2.530 -0.4999  0.3860  0.1775
  135OSM   H13A14521   3.696   4.604   2.587  1.8463  0.1923  1.9979
  135OSM   H13B14522   3.715   4.665   2.427 -0.6042  0.1092  0.2547
  135OSM   H13C14523   3.694   4.777   2.554 -0.8742  0.0782  0.6266
  135OSM    C1214524   3.922   4.689   2.700  0.0755 -0.0778  1.0877
  135OSM   H12A14525   3.865   4.612   2.750 -3.8871  2.3444  0.7686
  135OSM   H12B14526   3.883   4.779   2.745  1.2973 -0.1181  2.2926
  135OSM    C1114527   4.072   4.671   2.747  0.7917  0.4173  0.0094
  135OSM   H11A14528   4.072   4.715   2.850  1.8191 -1.0113  0.6572
  135OSM   H11B14529   4.141   4.729   2.682  0.1795  0.1393 -0.9027
  135OSM      P14530   4.061   4.413   2.848 -0.1081 -0.0192  0.2410
  135OSM    O1314531   3.918   4.425   2.861 -0.2632  0.0519 -0.1596
  135OSM    O1414532   4.116   4.288   2.786 -0.2664 -0.2718 -0.1600
  135OSM    O1114533   4.131   4.429   2.989  0.1982 -0.3209  0.6965
  135OSM    O1214534   4.116   4.539   2.760 -0.1331 -0.0361 -0.3573
  135OSM    C1S14535   4.257   4.504   2.992 -0.0399  0.2329 -0.0651
  135OSM    H1S14536   4.229   4.608   2.965  2.1337  1.2421  1.2792
  135OSM    H1T14537   4.325   4.475   2.910  0.6545  2.8306 -0.5103
  135OSM     NF14538   4.444   4.572   3.122  0.2151  0.0409  0.0095
  135OSM    HNF14539   4.526   4.516   3.108  0.1878  0.6158 -3.2212
  135OSM    C2S14540   4.322   4.491   3.126  0.0111 -0.2607 -0.8530
  135OSM    H2S14541   4.254   4.536   3.201  1.9714  0.3385  0.6718
  135OSM    C3S14542   4.349   4.339   3.165 -0.5180 -0.9473 -0.2060
  135OSM    H3S14543   4.407   4.293   3.083  0.9772  2.5915 -1.3401
  135OSM     O314544   4.232   4.259   3.190 -0.0115  0.1653 -0.2173
  135OSM    HO314545   4.167   4.293   3.128 -0.4197 -0.0023  0.1213
  135OSM    C4S14546   4.442   4.350   3.280  0.2970  0.1652 -0.4307
  135OSM    H4S14547   4.400   4.419   3.355  0.0710 -2.3980  1.9821
  135OSM    C5S14548   4.554   4.284   3.310 -0.4499  0.0935 -0.2994
  135OSM    H5S14549   4.601   4.212   3.241 -1.4579 -2.9778  2.0122
  135OSM    C6S14550   4.634   4.300   3.434  0.3348 -0.1214 -0.0046
  135OSM    H6S14551   4.722   4.366   3.418 -0.6918  2.0844  2.7035
  135OSM    H6T14552   4.670   4.200   3.469  1.3094  0.4448  0.6554
  135OSM    C7S14553   4.557   4.370   3.552 -1.1775  0.6226  0.5230
  135OSM    H7S14554   4.463   4.317   3.577 -1.0441 -0.2812 -0.8263
  135OSM    H7T14555   4.515   4.471   3.531 -2.0998 -0.0451 -0.9686
  135OSM    C8S14556   4.635   4.398   3.685 -0.3929  0.3233  0.2902
  135OSM    H8S14557   4.727   4.459   3.673 -0.4299  0.6121  1.4250
  135OSM    H8T14558   4.664   4.293   3.710 -0.2993 -0.0509 -1.2520
  135OSM    C9S14559   4.543   4.455   3.795  0.9057 -0.2213 -0.0501
  135OSM    H9S14560   4.481   4.367   3.821 -0.4793  0.4512 -0.9237
  135OSM    H9T14561   4.490   4.543   3.752 -0.1028 -0.2430  1.0969
  135OSM   C10S14562   4.619   4.512   3.912 -0.0516  0.0249  0.2325
  135OSM   H10S14563   4.654   4.612   3.878  0.2312 -0.1703 -0.0638
  135OSM   H10T14564   4.709   4.450   3.931  0.8363  1.3832  0.5984
  135OSM   C11S14565   4.535   4.502   4.039 -0.3428  0.3889  0.3435
  135OSM   H11S14566   4.495   4.399   4.043 -0.1933  0.3232  0.1299
  135OSM   H11T14567   4.457   4.581   4.028 -0.7316 -0.2017 -1.3734
  135OSM   C12S14568   4.604   4.530   4.173 -1.0454  0.1941 -0.0806
  135OSM   H12S14569   4.654   4.630   4.179 -1.1174  0.3497 -1.5950
  135OSM   H12T14570   4.683   4.453   4.165 -1.1058  0.2557 -1.6044
  135OSM   C13S14571   4.510   4.505   4.287  0.0608 -0.1483 -0.1449
  135OSM   H13S14572   4.442   4.423   4.255  1.6629 -2.1558  1.3524
  135OSM   H13T14573   4.437   4.587   4.302 -0.4283 -0.6937  0.5285
  135OSM   C14S14574   4.580   4.461   4.414 -0.5062  0.0618 -0.3043
  135OSM   H14S14575   4.671   4.521   4.437 -0.1831  0.2203 -1.8795
  135OSM   H14T14576   4.616   4.357   4.397  0.9322  0.5024 -0.1545
  135OSM   C15S14577   4.493   4.466   4.540 -0.0251  0.2397 -0.1092
  135OSM   H15S14578   4.447   4.366   4.556  1.7260 -0.4418  0.9632
  135OSM   H15T14579   4.422   4.551   4.545  1.2680  1.2964  1.1119
  135OSM   C16S14580   4.577   4.481   4.668  0.6495 -0.1315  0.5496
  135OSM   H16S14581   4.639   4.571   4.651  0.1228  0.4623  1.6069
  135OSM   H16T14582   4.659   4.406   4.671  0.6505 -0.1683 -0.2454
  135OSM   C17S14583   4.506   4.495   4.801 -0.4235  0.5889 -0.3175
  135OSM   H17S14584   4.426   4.418   4.812  0.4930 -0.7695 -2.3924
  135OSM   H17T14585   4.452   4.591   4.791 -0.1929  0.6605 -0.9169
  135OSM   C18S14586   4.604   4.488   4.909 -0.6292 -0.3859  0.1157
  135OSM   H18S14587   4.675   4.573   4.895 -0.0677 -1.2795 -3.3562
  135OSM   H18T14588   4.670   4.398   4.901  1.5384  1.3093 -2.6610
  135OSM   H18U14589   4.558   4.500   5.010 -0.8107  2.0888 -0.2171
  135OSM    C1F14590   4.453   4.705   3.120 -0.2142  0.5885  0.9397
  135OSM     OF14591   4.352   4.771   3.100 -0.3733 -0.0274  0.2113
  135OSM    C2F14592   4.592   4.759   3.140  0.5935 -0.2784  0.0025
  135OSM    H2F14593   4.623   4.801   3.042  2.9195  0.9200  1.1752
  135OSM    H2G14594   4.662   4.679   3.174 -1.4263 -1.9941  0.3649
  135OSM    C3F14595   4.598   4.874   3.236  0.6385 -0.3285  0.8151
  135OSM    H3F14596   4.553   4.966   3.193 -0.0816 -1.0706 -0.0579
  135OSM    H3G14597   4.702   4.913   3.248  0.1044  1.9275 -1.2458
  135OSM    C4F14598   4.532   4.842   3.370  0.0021  0.4623 -0.0334
  135OSM    H4F14599   4.526   4.731   3.378 -0.7489  0.4296 -0.8577
  135OSM    H4G14600   4.431   4.888   3.374 -0.7204 -1.0460 -0.3317
  135OSM    C5F14601   4.612   4.912   3.478  0.4103 -0.4334  0.0877
  135OSM    H5F14602   4.640   5.010   3.436 -1.7039 -0.8076 -2.4505
  135OSM    H5G14603   4.704   4.851   3.487  0.0623 -0.8745  0.7967
  135OSM    C6F14604   4.545   4.911   3.613  0.8049  0.3174 -0.3995
  135OSM    H6F14605   4.500   4.813   3.639  0.0533  0.9413  0.7913
  135OSM    H6G14606   4.466   4.989   3.623  0.3544 -0.3270  1.5312
  135OSM    C7F14607   4.633   4.951   3.731 -0.4279  0.3057 -0.8291
  135OSM    H7F14608   4.701   5.034   3.705  0.9216 -0.4046  0.3219
  135OSM    H7G14609   4.707   4.869   3.744 -0.8159  0.0389 -0.2427
  135OSM    C8F14610   4.557   4.960   3.865  0.2538  0.2313 -0.3374
  135OSM    H8F14611   4.469   4.895   3.848  1.2255 -0.6977 -2.0115
  135OSM    H8G14612   4.518   5.063   3.878  2.3171  1.0386 -0.0896
  135OSM    C9F14613   4.624   4.905   3.990  0.3944 -0.5340  0.4112
  135OSM    H9F14614   4.606   4.798   4.012 -0.9257 -0.1900  1.1641
  135OSM   C10F14615   4.686   4.982   4.085 -0.1128  0.0711 -0.5114
  135OSM   H10F14616   4.726   4.926   4.171 -1.3639 -0.5900 -0.3397
  135OSM   C11F14617   4.720   5.125   4.096  0.4342  0.6388 -0.2937
  135OSM   H11F14618   4.720   5.157   3.990  2.9564 -1.2041 -0.9421
  135OSM   H11G14619   4.826   5.141   4.122  1.0370 -0.0451 -2.1622
  135OSM   C12F14620   4.627   5.201   4.188 -0.6993 -0.2198 -0.0176
  135OSM   H12F14621   4.562   5.135   4.250  0.7890  0.0078  1.8623
  135OSM   H12G14622   4.553   5.256   4.126  1.1239  0.9876 -1.1768
  135OSM   C13F14623   4.693   5.296   4.285 -0.0080 -0.2634  0.1838
  135OSM   H13F14624   4.747   5.369   4.222  0.4594 -0.4177  0.4017
  135OSM   H13G14625   4.761   5.247   4.358  1.3345 -1.4878 -1.8018
  135OSM   C14F14626   4.585   5.362   4.372  0.0959 -0.1739 -0.5436
  135OSM   H14F14627   4.512   5.289   4.414  1.0700 -1.3095 -0.7641
  135OSM   H14G14628   4.536   5.439   4.309  0.2888 -2.2825 -3.4167
  135OSM   C15F14629   4.649   5.449   4.479  0.4374  0.2931  0.2956
  135OSM   H15F14630   4.727   5.515   4.436 -0.0362 -0.0701 -1.1800
  135OSM   H15G14631   4.710   5.384   4.545 -0.0714  0.2011  0.6817
  135OSM   C16F14632   4.548   5.519   4.569 -0.8425  0.0300 -0.1266
  135OSM   H16F14633   4.484   5.444   4.622 -1.4515  1.5926  1.4430
  135OSM   H16G14634   4.481   5.583   4.509 -1.1885 -0.6570 -0.4914
  135OSM   C17F14635   4.618   5.615   4.663 -0.0887  0.1039  0.3287
  135OSM   H17F14636   4.671   5.694   4.606 -2.3154  1.2850 -0.2539
  135OSM   H17G14637   4.699   5.556   4.709  0.5734  1.9257  1.6084
  135OSM   C18F14638   4.528   5.683   4.765 -0.2215  0.0228  0.3980
  135OSM   H18F14639   4.469   5.772   4.734  1.1462  0.6804 -0.4104
  135OSM   H18G14640   4.580   5.719   4.857 -0.0180  3.8046 -1.0243
  135OSM   H18H14641   4.454   5.609   4.802 -3.0433  2.2867 -0.3611
  136OSM      N14642   6.884   0.439   2.519 -0.4873  0.8081  0.0880
  136OSM    C1514643   6.947   0.407   2.649  0.0362  0.1021  0.3411
  136OSM   H15A14644   6.937   0.302   2.670  2.4700 -0.8574 -2.5164
  136OSM   H15B14645   6.900   0.459   2.731 -1.1833  0.1556 -0.3728
  136OSM   H15C14646   7.049   0.443   2.647 -0.3916  1.3993  0.6865
  136OSM    C1414647   6.888   0.589   2.487 -0.6299  0.7644  0.2552
  136OSM   H14A14648   6.825   0.642   2.557 -1.8781  0.2058 -0.4126
  136OSM   H14B14649   6.845   0.614   2.391 -1.6041 -0.5053  0.3266
  136OSM   H14C14650   6.991   0.620   2.490 -0.9285  1.7333  1.1890
  136OSM    C1314651   6.951   0.367   2.410  0.2660 -0.0076 -0.2670
  136OSM   H13A14652   6.897   0.372   2.316 -0.1274 -1.9011 -0.1799
  136OSM   H13B14653   6.959   0.260   2.425 -0.6112 -0.3628 -2.0493
  136OSM   H13C14654   7.054   0.391   2.393  1.1667 -3.7865 -1.2085
  136OSM    C1214655   6.733   0.400   2.524 -0.0241 -0.2902  0.3259
  136OSM   H12A14656   6.721   0.294   2.513 -2.1548 -0.1715  1.2013
  136OSM   H12B14657   6.681   0.442   2.440 -0.8794 -0.8226  0.5791
  136OSM    C1114658   6.654   0.436   2.655 -0.8685 -0.3239  0.3016
  136OSM   H11A14659   6.689   0.384   2.747  0.1054  1.7098  1.1431
  136OSM   H11B14660   6.554   0.390   2.643 -1.3052  0.6651  0.0684
  136OSM      P14661   6.535   0.673   2.633  0.0500  0.0301  0.0504
  136OSM    O1314662   6.593   0.814   2.625  0.7506  0.2005  0.1165
  136OSM    O1414663   6.465   0.626   2.514 -0.3033  0.4065  0.1981
  136OSM    O1114664   6.442   0.663   2.760  0.3748 -0.3856 -0.0002
  136OSM    O1214665   6.648   0.578   2.678 -0.4284  0.2105  0.1422
  136OSM    C1S14666   6.500   0.678   2.891  0.1595 -1.0027  0.2518
  136OSM    H1S14667   6.598   0.731   2.887  1.6545 -3.5732  0.4883
  136OSM    H1T14668   6.530   0.580   2.935  2.0666 -0.1034  1.0898
  136OSM     NF14669   6.474   0.768   3.113 -0.6350  0.3181 -0.2611
  136OSM    HNF14670   6.469   0.709   3.194  0.5872  2.8601  1.8423
  136OSM    C2S14671   6.403   0.742   2.989 -0.4255 -0.4763 -0.0688
  136OSM    H2S14672   6.359   0.834   2.944 -0.1294  1.1328  2.6290
  136OSM    C3S14673   6.284   0.644   3.014 -0.2577 -0.0211 -0.0337
  136OSM    H3S14674   6.326   0.564   3.078  1.1415  1.0282  0.4054
  136OSM     O314675   6.246   0.567   2.899 -0.0299 -0.2035 -0.8519
  136OSM    HO314676   6.323   0.584   2.844 -0.2450  0.7134 -0.8756
  136OSM    C4S14677   6.171   0.700   3.085  0.3796  0.3387 -0.0321
  136OSM    H4S14678   6.198   0.704   3.192 -0.1813 -0.2147  0.1405
  136OSM    C5S14679   6.051   0.735   3.039  0.4131  0.0487  0.0723
  136OSM    H5S14680   6.022   0.717   2.935  0.1280  0.0836  0.1464
  136OSM    C6S14681   5.939   0.797   3.113  0.4071  0.2891 -0.0977
  136OSM    H6S14682   5.838   0.766   3.080  0.7814 -1.3550  0.1884
  136OSM    H6T14683   5.945   0.905   3.089 -0.3944  0.4700  0.4679
  136OSM    C7S14684   5.943   0.773   3.268  0.3516  0.0250 -0.6152
  136OSM    H7S14685   6.019   0.833   3.322  0.3596 -0.7703  0.2769
  136OSM    H7T14686   5.970   0.668   3.291 -1.0248  0.1046  1.6527
  136OSM    C8S14687   5.807   0.805   3.339 -0.3226 -0.3670  0.5318
  136OSM    H8S14688   5.795   0.737   3.426  2.0950 -1.9629 -0.2501
  136OSM    H8T14689   5.726   0.775   3.268  1.7940 -0.5026 -1.9949
  136OSM    C9S14690   5.784   0.960   3.373  0.1706  0.7237  0.5554
  136OSM    H9S14691   5.677   0.985   3.357  0.0603  0.4684  0.8805
  136OSM    H9T14692   5.845   1.007   3.293 -0.0177 -0.5025 -0.3390
  136OSM   C10S14693   5.856   0.992   3.505  0.1183  0.2227  0.1152
  136OSM   H10S14694   5.882   1.099   3.495 -0.1052  0.1986 -0.9083
  136OSM   H10T14695   5.947   0.929   3.519 -0.9240 -0.7600  3.3630
  136OSM   C11S14696   5.766   0.980   3.628  0.1389  0.4766  0.3829
  136OSM   H11S14697   5.699   0.893   3.617  0.3875  0.0091  2.2666
  136OSM   H11T14698   5.700   1.068   3.614 -0.6070 -0.1486 -0.1249
  136OSM   C12S14699   5.830   0.990   3.762  0.1369 -0.3363 -0.5169
  136OSM   H12S14700   5.935   1.029   3.766  0.9158 -2.0648 -2.2381
  136OSM   H12T14701   5.836   0.888   3.805  0.3719 -0.1282 -0.0421
  136OSM   C13S14702   5.740   1.066   3.869  0.0190  0.5139 -0.1920
  136OSM   H13S14703   5.645   1.011   3.884 -0.6728  1.0849 -2.1233
  136OSM   H13T14704   5.721   1.167   3.825  3.4312  1.1533 -0.4790
  136OSM   C14S14705   5.820   1.084   3.996 -0.2814 -0.1802 -0.0986
  136OSM   H14S14706   5.921   1.124   3.970 -0.5142 -0.2643 -1.1507
  136OSM   H14T14707   5.833   0.987   4.049  2.2712 -0.3843 -0.9333
  136OSM   C15S14708   5.760   1.171   4.107  0.3273  0.5081  0.2861
  136OSM   H15S14709   5.654   1.144   4.090  1.3915 -2.9536 -1.6654
  136OSM   H15T14710   5.762   1.281   4.089  0.4166  0.6359  1.0410
  136OSM   C16S14711   5.804   1.137   4.247 -0.1980 -1.0215  0.1387
  136OSM   H16S14712   5.780   1.030   4.262  0.2812 -1.1712 -0.1474
  136OSM   H16T14713   5.739   1.203   4.309 -0.3175 -0.4105 -0.6182
  136OSM   C17S14714   5.958   1.155   4.273 -0.5284  0.0760  0.6017
  136OSM   H17S14715   6.010   1.073   4.219 -0.6889 -0.0505  0.6388
  136OSM   H17T14716   5.978   1.142   4.382  2.5831  3.7179  0.6503
  136OSM   C18S14717   6.025   1.292   4.246  0.2243 -0.0837  0.0732
  136OSM   H18S14718   6.030   1.307   4.136 -0.2513 -0.5663 -0.0186
  136OSM   H18T14719   6.128   1.309   4.284  1.0549 -1.6203 -1.3966
  136OSM   H18U14720   5.962   1.374   4.287 -1.7231 -0.4129 -2.0548
  136OSM    C1F14721   6.551   0.875   3.133  0.4020 -0.2208 -0.3376
  136OSM     OF14722   6.556   0.971   3.061 -0.2594 -0.2021  0.0730
  136OSM    C2F14723   6.626   0.884   3.261 -0.5324  0.2107  0.4806
  136OSM    H2F14724   6.729   0.854   3.232 -0.6834  0.4122 -0.2678
  136OSM    H2G14725   6.583   0.805   3.327 -0.8033  0.5906  0.7631
  136OSM    C3F14726   6.638   1.030   3.313  0.1786 -0.2701  0.2275
  136OSM    H3F14727   6.538   1.074   3.330 -0.6067 -1.1749 -1.8096
  136OSM    H3G14728   6.687   1.092   3.235  1.0283 -0.8777  0.2658
  136OSM    C4F14729   6.715   1.044   3.449 -0.1576  0.0332 -0.5932
  136OSM    H4F14730   6.700   1.143   3.497 -2.5463 -1.3507  1.8077
  136OSM    H4G14731   6.825   1.036   3.433  0.0105 -0.1345  0.5539
  136OSM    C5F14732   6.677   0.935   3.551 -0.1707  0.6816 -0.1326
  136OSM    H5F14733   6.704   0.842   3.496  1.4792  2.7096 -3.0496
  136OSM    H5G14734   6.568   0.930   3.568 -0.4526 -0.1380 -1.9472
  136OSM    C6F14735   6.753   0.944   3.685  1.1214 -0.1936  0.6147
  136OSM    H6F14736   6.839   1.012   3.669  0.9398  0.1814  1.2122
  136OSM    H6G14737   6.795   0.843   3.705 -0.4677 -1.0646 -0.2486
  136OSM    C7F14738   6.659   0.989   3.798  0.3966 -0.2875 -0.0989
  136OSM    H7F14739   6.571   0.922   3.788  0.0788  0.2557 -1.0998
  136OSM    H7G14740   6.621   1.087   3.763 -1.3186 -0.4756  1.1358
  136OSM    C8F14741   6.728   1.006   3.935 -0.3423 -0.5999 -0.0184
  136OSM    H8F14742   6.781   0.913   3.966  1.5100 -0.0827 -1.4185
  136OSM    H8G14743   6.647   1.026   4.009  1.1101 -0.5159  1.6177
  136OSM    C9F14744   6.826   1.123   3.928 -1.3609  0.2273  0.4801
  136OSM    H9F14745   6.812   1.184   3.837  0.3897  0.1410  0.1111
  136OSM   C10F14746   6.934   1.150   4.002 -0.6306 -0.3274  0.7668
  136OSM   H10F14747   6.991   1.238   3.969 -0.5625 -0.7198 -0.1793
  136OSM   C11F14748   6.984   1.082   4.123 -0.3002 -0.0603 -0.0213
  136OSM   H11F14749   6.924   0.992   4.150 -1.0733  0.6606  0.7498
  136OSM   H11G14750   6.975   1.148   4.211  1.4732 -0.7867  0.7519
  136OSM   C12F14751   7.136   1.034   4.116  0.2027  0.1653 -0.1252
  136OSM   H12F14752   7.164   0.998   4.218  1.9163  0.8957 -0.3027
  136OSM   H12G14753   7.221   1.101   4.091 -0.3080  0.7739 -0.2543
  136OSM   C13F14754   7.149   0.902   4.028  0.3211  0.8921 -0.6578
  136OSM   H13F14755   7.125   0.936   3.926 -2.2954  2.5158  0.4149
  136OSM   H13G14756   7.071   0.828   4.054  0.0892  0.9922 -1.0713
  136OSM   C14F14757   7.288   0.838   4.040  0.3549  0.0038  0.0221
  136OSM   H14F14758   7.313   0.818   4.146  0.2353 -0.6202 -0.0592
  136OSM   H14G14759   7.361   0.905   3.991 -1.2764  0.6938 -1.5835
  136OSM   C15F14760   7.309   0.705   3.964 -0.7903 -0.1721  0.5421
  136OSM   H15F14761   7.269   0.711   3.861 -2.2099  0.8247  1.1256
  136OSM   H15G14762   7.263   0.620   4.020  0.0299  0.6605  2.6014
  136OSM   C16F14763   7.453   0.660   3.969 -0.0784  0.3364 -0.2718
  136OSM   H16F14764   7.478   0.638   4.075  2.0440  1.7533 -0.4212
  136OSM   H16G14765   7.525   0.735   3.929  0.4895  0.6948  1.3417
  136OSM   C17F14766   7.465   0.526   3.891 -0.2617  0.6879 -0.3457
  136OSM   H17F14767   7.437   0.536   3.784  3.6104  0.9278 -1.5108
  136OSM   H17G14768   7.404   0.449   3.943  0.8568 -1.0814 -1.5213
  136OSM   C18F14769   7.602   0.472   3.880 -0.1862 -0.1335 -0.1514
  136OSM   H18F14770   7.658   0.560   3.843 -2.1336  1.4464  0.4891
  136OSM   H18G14771   7.606   0.382   3.814 -0.8937  0.3125 -0.8100
  136OSM   H18H14772   7.645   0.457   3.982  2.9772  1.3644 -1.1428
  137OSM      N14773   4.172   6.092   2.125  0.2731  0.2353  0.5626
  137OSM    C1514774   4.093   6.013   2.023 -0.3791 -0.1434 -0.2985
  137OSM   H15A14775   4.160   5.987   1.942  0.7147 -0.0426  0.5487
  137OSM   H15B14776   4.021   6.081   1.980  0.4057  1.9068  1.4045
  137OSM   H15C14777   4.051   5.922   2.065  0.1784  0.4108  1.5746
  137OSM    C1414778   4.265   5.986   2.180  0.5118 -0.4166 -0.6792
  137OSM   H14A14779   4.325   5.936   2.105  2.1742  1.4580 -0.6774
  137OSM   H14B14780   4.205   5.906   2.222  2.0907 -1.5349 -0.4529
  137OSM   H14C14781   4.333   6.020   2.257 -0.4803 -0.7588  0.3766
  137OSM    C1314782   4.264   6.187   2.048 -0.3583  0.0654  0.2674
  137OSM   H13A14783   4.212   6.281   2.034  2.0598  1.7300  1.6511
  137OSM   H13B14784   4.305   6.134   1.963 -0.3895  2.0678 -1.0836
  137OSM   H13C14785   4.345   6.215   2.114  0.0002 -1.1267  0.3496
  137OSM    C1214786   4.099   6.161   2.227 -0.0380 -1.1068 -0.1609
  137OSM   H12A14787   4.166   6.195   2.305  0.2782 -1.8405 -0.0951
  137OSM   H12B14788   4.035   6.093   2.281 -1.0193 -0.5495 -0.6143
  137OSM    C1114789   4.009   6.276   2.183 -0.4916 -0.7472  0.1622
  137OSM   H11A14790   3.944   6.254   2.095 -1.3281  1.4960  0.1425
  137OSM   H11B14791   4.081   6.354   2.150  0.7815 -1.6990  0.6263
  137OSM      P14792   3.970   6.423   2.408  0.0722  0.3105  0.2914
  137OSM    O1314793   4.111   6.458   2.381 -0.2805  0.1013  0.2001
  137OSM    O1414794   3.869   6.530   2.427 -0.3676 -0.0536  0.1411
  137OSM    O1114795   3.963   6.334   2.535 -0.4195  0.1618 -0.0109
  137OSM    O1214796   3.918   6.327   2.286  0.6796  0.3631  0.3530
  137OSM    C1S14797   4.029   6.372   2.658 -0.7440 -0.3587 -0.9699
  137OSM    H1S14798   4.091   6.463   2.639 -1.3244  0.1209 -0.5802
  137OSM    H1T14799   4.098   6.289   2.686 -2.3385 -1.7818 -1.0913
  137OSM     NF14800   3.999   6.445   2.887 -0.1189 -0.3408 -0.1232
  137OSM    HNF14801   4.010   6.382   2.963  0.8360 -0.3440 -0.2505
  137OSM    C2S14802   3.928   6.392   2.777  0.4637 -0.1207  0.8327
  137OSM    H2S14803   3.860   6.469   2.736 -1.2260 -1.5781  0.7811
  137OSM    C3S14804   3.844   6.264   2.805  0.3960 -0.0893 -0.6130
  137OSM    H3S14805   3.903   6.179   2.847 -1.2726 -0.6300  0.7731
  137OSM     O314806   3.770   6.224   2.691 -0.4595 -0.2534 -0.0384
  137OSM    HO314807   3.823   6.268   2.624  0.6357  0.3886  1.1984
  137OSM    C4S14808   3.737   6.303   2.903 -0.4769  0.7546 -0.3945
  137OSM    H4S14809   3.645   6.350   2.866 -0.7644  1.4483  1.1079
  137OSM    C5S14810   3.726   6.252   3.031  0.0949 -0.3418 -0.2925
  137OSM    H5S14811   3.799   6.185   3.080  0.5893 -0.6003 -1.3607
  137OSM    C6S14812   3.612   6.287   3.120  0.0072 -0.6475  0.4734
  137OSM    H6S14813   3.536   6.341   3.060 -0.5312 -2.1056 -0.1975
  137OSM    H6T14814   3.659   6.362   3.188  1.6221 -0.1606 -1.1099
  137OSM    C7S14815   3.537   6.177   3.196 -0.1870  0.4997 -0.2655
  137OSM    H7S14816   3.612   6.117   3.250  0.0653 -1.1005 -2.2440
  137OSM    H7T14817   3.496   6.102   3.124  0.8948  0.0178 -0.4007
  137OSM    C8S14818   3.438   6.217   3.309  0.3807  0.2334 -0.3561
  137OSM    H8S14819   3.389   6.127   3.353 -3.7416  1.7480 -1.4653
  137OSM    H8T14820   3.348   6.265   3.266 -0.9036 -0.1214  1.7586
  137OSM    C9S14821   3.499   6.308   3.422  0.8654 -0.3137  0.2581
  137OSM    H9S14822   3.478   6.414   3.396  3.3760 -0.2076 -1.6301
  137OSM    H9T14823   3.608   6.295   3.440  1.2242 -0.5227 -1.8472
  137OSM   C10S14824   3.430   6.273   3.552 -0.4956 -0.0429  0.2392
  137OSM   H10S14825   3.419   6.163   3.560 -1.3062  0.0682  0.7252
  137OSM   H10T14826   3.329   6.319   3.557 -0.3331  0.2074  1.7388
  137OSM   C11S14827   3.508   6.327   3.673  1.4171 -0.1722  0.5348
  137OSM   H11S14828   3.534   6.434   3.658  0.8021 -0.0563  0.2264
  137OSM   H11T14829   3.605   6.276   3.689  0.5144 -2.5531 -0.9603
  137OSM   C12S14830   3.431   6.320   3.809  0.2935 -0.7983  0.6896
  137OSM   H12S14831   3.387   6.218   3.820  0.4676 -0.6982  2.4467
  137OSM   H12T14832   3.345   6.389   3.819  1.6358  0.7584  1.8945
  137OSM   C13S14833   3.510   6.357   3.933 -0.2867 -0.0152 -0.4391
  137OSM   H13S14834   3.539   6.463   3.922 -2.3318  0.5999 -0.2230
  137OSM   H13T14835   3.601   6.293   3.940 -0.7004 -0.5314  0.4063
  137OSM   C14S14836   3.435   6.357   4.069  0.4233  0.0114 -0.2829
  137OSM   H14S14837   3.398   6.253   4.079  1.3655 -0.3017  0.0997
  137OSM   H14T14838   3.344   6.419   4.068  0.0193 -0.5744 -0.2414
  137OSM   C15S14839   3.545   6.381   4.182  0.1616  0.0502  0.3816
  137OSM   H15S14840   3.555   6.491   4.192 -1.6923  0.1864  1.1818
  137OSM   H15T14841   3.642   6.335   4.151 -0.4706 -1.9825  1.2671
  137OSM   C16S14842   3.499   6.314   4.309 -0.4327  0.5111 -1.1585
  137OSM   H16S14843   3.497   6.203   4.296  0.6186  0.3314 -0.0452
  137OSM   H16T14844   3.395   6.342   4.336  0.7089  2.6566  1.5133
  137OSM   C17S14845   3.595   6.341   4.428  0.6693 -0.4191 -0.4795
  137OSM   H17S14846   3.696   6.326   4.383  2.0977  0.8337  2.0833
  137OSM   H17T14847   3.584   6.258   4.501 -1.5266 -0.5846 -0.9419
  137OSM   C18S14848   3.590   6.484   4.491  0.2770  0.0554  0.3644
  137OSM   H18S14849   3.648   6.476   4.585 -1.5158 -0.7898  1.4600
  137OSM   H18T14850   3.484   6.510   4.513 -0.2517 -1.6933  0.0832
  137OSM   H18U14851   3.639   6.560   4.427  1.8709 -2.1040 -1.1233
  137OSM    C1F14852   4.066   6.562   2.888 -0.6298  0.5389 -0.2609
  137OSM     OF14853   4.042   6.638   2.795  0.0736  0.2586 -0.7514
  137OSM    C2F14854   4.161   6.588   2.997 -0.5736 -0.6704 -0.0489
  137OSM    H2F14855   4.256   6.628   2.954 -1.1368  2.0128  1.0007
  137OSM    H2G14856   4.190   6.501   3.060 -1.4398 -1.1118 -0.2578
  137OSM    C3F14857   4.105   6.701   3.086  0.1374 -0.2207  0.2057
  137OSM    H3F14858   4.007   6.657   3.115 -0.1207 -0.2092 -0.6394
  137OSM    H3G14859   4.096   6.796   3.030 -0.8622 -1.4113 -1.7645
  137OSM    C4F14860   4.176   6.745   3.218  0.1836 -0.1060 -0.3234
  137OSM    H4F14861   4.196   6.855   3.214 -2.8104  0.6048  1.4646
  137OSM    H4G14862   4.275   6.694   3.222  1.2891  1.9097 -0.0837
  137OSM    C5F14863   4.097   6.704   3.337  0.0600  0.0021  0.3615
  137OSM    H5F14864   4.070   6.599   3.312 -0.5838  0.3577 -0.5007
  137OSM    H5G14865   4.007   6.767   3.354  2.1504  3.2666  0.1315
  137OSM    C6F14866   4.174   6.713   3.467 -0.1549  0.0896  0.3304
  137OSM    H6F14867   4.272   6.662   3.477  0.4678  1.4664  1.6089
  137OSM    H6G14868   4.120   6.666   3.552  1.6712 -0.3464  1.3069
  137OSM    C7F14869   4.209   6.859   3.501  0.3795 -0.5421 -0.9431
  137OSM    H7F14870   4.121   6.927   3.512  1.9723  1.4293  0.2629
  137OSM    H7G14871   4.271   6.890   3.414 -2.1036 -1.2680 -3.1007
  137OSM    C8F14872   4.292   6.865   3.630  0.0621 -0.2905 -0.3115
  137OSM    H8F14873   4.387   6.823   3.592  0.7696  2.2138 -1.5421
  137OSM    H8G14874   4.251   6.801   3.711  1.7656 -1.7290 -0.5242
  137OSM    C9F14875   4.312   7.006   3.679  0.4451 -0.7671  0.2602
  137OSM    H9F14876   4.392   7.058   3.624 -0.0219 -0.3287 -0.0115
  137OSM   C10F14877   4.240   7.080   3.764  0.1609 -0.0875 -0.3438
  137OSM   H10F14878   4.271   7.184   3.783  1.1193 -0.6020  1.0959
  137OSM   C11F14879   4.124   7.015   3.839 -0.1691 -0.3993  0.4932
  137OSM   H11F14880   4.144   6.913   3.879  0.3299 -0.4785  0.0495
  137OSM   H11G14881   4.041   7.012   3.765  1.3285 -2.6876 -1.2399
  137OSM   C12F14882   4.080   7.093   3.967  0.5243  0.3278  0.6041
  137OSM   H12F14883   4.155   7.085   4.050  2.1280  1.3403 -0.6865
  137OSM   H12G14884   3.993   7.031   3.998  0.8128 -0.5244 -0.2452
  137OSM   C13F14885   4.020   7.236   3.958  0.3858 -0.0752  0.6245
  137OSM   H13F14886   4.107   7.301   3.932 -0.1384  0.4475  0.1368
  137OSM   H13G14887   3.979   7.272   4.054  1.5012  1.0296  0.7119
  137OSM   C14F14888   3.924   7.263   3.844  0.3506 -0.1051  0.5625
  137OSM   H14F14889   3.921   7.181   3.769 -0.2113  0.8823 -0.5377
  137OSM   H14G14890   3.953   7.360   3.798 -2.8995  0.6355 -0.1924
  137OSM   C15F14891   3.781   7.303   3.883 -0.3622  0.5024 -0.6117
  137OSM   H15F14892   3.783   7.376   3.967  1.4505  0.0145 -0.1754
  137OSM   H15G14893   3.731   7.208   3.911 -3.2896  2.1042 -0.1159
  137OSM   C16F14894   3.701   7.361   3.766 -0.4859 -0.2820 -0.7032
  137OSM   H16F14895   3.675   7.279   3.695 -2.1116 -0.8683  0.5225
  137OSM   H16G14896   3.769   7.428   3.708  0.8697 -2.5458 -1.8980
  137OSM   C17F14897   3.577   7.438   3.811  0.2311 -0.2120 -0.3916
  137OSM   H17F14898   3.619   7.525   3.866 -0.9586  0.8941 -1.1786
  137OSM   H17G14899   3.523   7.365   3.876  0.3138  0.2290  0.1783
  137OSM   C18F14900   3.497   7.481   3.685  0.5416  0.3992  0.0581
  137OSM   H18F14901   3.395   7.514   3.712  0.7248  0.4085  0.7506
  137OSM   H18G14902   3.480   7.398   3.613 -0.3778  0.0030  0.7108
  137OSM   H18H14903   3.541   7.561   3.622  0.2979 -0.3402 -1.0846
  138OSM      N14904   1.518   3.261   2.468 -0.1929 -0.2398  0.2496
  138OSM    C1514905   1.608   3.153   2.416  0.5131  0.1805 -0.1251
  138OSM   H15A14906   1.579   3.063   2.468 -1.2194  0.8022  0.0654
  138OSM   H15B14907   1.711   3.169   2.443  0.4971  0.0652  0.0052
  138OSM   H15C14908   1.595   3.139   2.310  3.0330 -0.4703 -0.3945
  138OSM    C1414909   1.544   3.389   2.390 -0.9207  0.3266 -0.5558
  138OSM   H14A14910   1.637   3.440   2.414 -1.3853  1.2308 -0.6399
  138OSM   H14B14911   1.467   3.460   2.417  0.5187  1.0846  1.8288
  138OSM   H14C14912   1.540   3.381   2.282  0.9359  1.3418 -0.7359
  138OSM    C1314913   1.379   3.210   2.429  0.4115 -0.0775  0.6027
  138OSM   H13A14914   1.367   3.184   2.325 -0.2126  0.3197  0.5714
  138OSM   H13B14915   1.312   3.292   2.451 -0.2138  0.3048 -2.3745
  138OSM   H13C14916   1.341   3.126   2.485 -1.5224  0.8157  0.7123
  138OSM    C1214917   1.525   3.274   2.622 -0.6215 -0.0202  0.7200
  138OSM   H12A14918   1.453   3.345   2.659 -1.0048  0.6070 -1.1174
  138OSM   H12B14919   1.626   3.306   2.643 -0.2862 -0.2182 -0.4720
  138OSM    C1114920   1.482   3.143   2.700  0.5390 -0.4023 -0.5705
  138OSM   H11A14921   1.386   3.106   2.657 -1.3021  0.7798  2.2013
  138OSM   H11B14922   1.453   3.169   2.804  1.6301 -1.0646 -0.0928
  138OSM      P14923   1.705   3.038   2.804 -0.0536 -0.0068  0.2769
  138OSM    O1314924   1.776   2.917   2.760 -0.1915  0.3724  0.0454
  138OSM    O1414925   1.782   3.162   2.805  0.3653 -0.6909  0.5706
  138OSM    O1114926   1.631   3.016   2.941  0.0556 -0.6115 -0.2475
  138OSM    O1214927   1.583   3.044   2.703  0.5144  0.3111  0.5003
  138OSM    C1S14928   1.692   3.082   3.052 -0.4135  0.4429 -0.3518
  138OSM    H1S14929   1.696   3.193   3.048  0.6994  0.4740  0.7400
  138OSM    H1T14930   1.794   3.039   3.059 -0.5335 -0.5027 -3.2259
  138OSM     NF14931   1.708   3.095   3.299  0.6658  0.4529 -0.2470
  138OSM    HNF14932   1.762   3.023   3.342 -2.1424 -0.4337  2.1889
  138OSM    C2S14933   1.627   3.044   3.192 -0.1474 -0.0497 -0.5618
  138OSM    H2S14934   1.531   3.099   3.193  0.4360  1.1633 -3.0711
  138OSM    C3S14935   1.604   2.893   3.189  0.6010 -0.0669 -0.0500
  138OSM    H3S14936   1.697   2.835   3.172 -0.9366 -3.3241  1.6211
  138OSM     O314937   1.505   2.853   3.086 -0.4317  0.0212 -0.1957
  138OSM    HO314938   1.504   2.925   3.023  0.8426  1.6289  1.5269
  138OSM    C4S14939   1.553   2.853   3.328 -0.1082 -0.0136 -0.1258
  138OSM    H4S14940   1.617   2.870   3.416 -1.0891 -0.9613  0.8011
  138OSM    C5S14941   1.431   2.804   3.353  0.0193  0.2767  0.1080
  138OSM    H5S14942   1.364   2.788   3.267  0.8948 -0.2840 -0.4970
  138OSM    C6S14943   1.371   2.786   3.495  0.6775 -0.2014  0.3234
  138OSM    H6S14944   1.382   2.683   3.535 -3.1299 -0.7830  0.2064
  138OSM    H6T14945   1.262   2.805   3.489  0.5144 -0.3431  2.1802
  138OSM    C7S14946   1.417   2.888   3.604  0.2239  0.0115  0.3233
  138OSM    H7S14947   1.428   2.986   3.553 -1.2083 -0.2712 -0.5823
  138OSM    H7T14948   1.522   2.863   3.631  0.3492  0.4923  0.2954
  138OSM    C8S14949   1.332   2.899   3.735 -0.4983 -0.2843  0.6192
  138OSM    H8S14950   1.241   2.960   3.712 -0.1131  0.3808  0.8346
  138OSM    H8T14951   1.395   2.942   3.815  1.5099 -4.1460  1.3391
  138OSM    C9S14952   1.288   2.759   3.779 -0.2546 -0.9387 -0.2845
  138OSM    H9S14953   1.365   2.679   3.780 -0.2033 -0.9292 -1.4083
  138OSM    H9T14954   1.212   2.730   3.703 -1.6549 -0.1591  0.7676
  138OSM   C10S14955   1.206   2.755   3.920  0.6872  0.4804  0.7437
  138OSM   H10S14956   1.102   2.718   3.902  1.4129 -0.5748 -1.5582
  138OSM   H10T14957   1.213   2.855   3.967  0.2329  0.3077  1.1874
  138OSM   C11S14958   1.270   2.652   4.023 -0.0668 -0.3142 -0.1821
  138OSM   H11S14959   1.372   2.691   4.044  0.4809 -1.4532 -0.6712
  138OSM   H11T14960   1.271   2.551   3.978  1.6853 -0.6162  0.4528
  138OSM   C12S14961   1.181   2.636   4.153 -0.0178  0.4445 -0.4405
  138OSM   H12S14962   1.093   2.577   4.121  1.3272 -0.9176 -1.7699
  138OSM   H12T14963   1.143   2.737   4.182  0.5019  0.5334 -0.0545
  138OSM   C13S14964   1.251   2.560   4.271  0.7691 -0.4784  0.1944
  138OSM   H13S14965   1.326   2.629   4.314 -0.9787  0.9783  1.0382
  138OSM   H13T14966   1.294   2.463   4.240 -1.8701 -2.0302  1.0551
  138OSM   C14S14967   1.140   2.534   4.379 -0.0725  0.4915 -0.4026
  138OSM   H14S14968   1.059   2.478   4.327 -1.8087  1.5143  1.0446
  138OSM   H14T14969   1.093   2.633   4.398  0.3132  0.1544  2.9608
  138OSM   C15S14970   1.195   2.464   4.498 -0.5071  0.4237 -1.0245
  138OSM   H15S14971   1.258   2.537   4.553 -2.8685  0.5984  1.7324
  138OSM   H15T14972   1.258   2.389   4.446 -0.4802 -0.6029  0.4355
  138OSM   C16S14973   1.093   2.408   4.597  0.0129 -0.1652  0.0540
  138OSM   H16S14974   1.152   2.362   4.680 -0.7792 -1.9689 -0.3428
  138OSM   H16T14975   1.044   2.319   4.552 -0.1382  0.5641 -1.2749
  138OSM   C17S14976   0.975   2.490   4.651  0.1910 -0.2788  0.4152
  138OSM   H17S14977   0.907   2.528   4.572 -1.0901 -2.9941  0.0761
  138OSM   H17T14978   1.023   2.575   4.704  0.8527 -0.8946  0.8106
  138OSM   C18S14979   0.879   2.407   4.745  0.0054 -0.1673 -0.1170
  138OSM   H18S14980   0.798   2.461   4.799 -0.0368 -0.3369 -0.0100
  138OSM   H18T14981   0.943   2.345   4.811  1.1602 -0.4215 -1.4042
  138OSM   H18U14982   0.832   2.327   4.684  1.4550 -0.4404 -0.9253
  138OSM    C1F14983   1.720   3.224   3.333  0.1983  0.5881  0.2282
  138OSM     OF14984   1.682   3.310   3.256 -0.0751 -0.1245 -0.0058
  138OSM    C2F14985   1.768   3.247   3.473  0.2068 -0.7598  0.9877
  138OSM    H2F14986   1.860   3.186   3.489 -0.0707 -1.0798  1.3969
  138OSM    H2G14987   1.691   3.232   3.552  0.3664  0.8390  1.4775
  138OSM    C3F14988   1.826   3.393   3.487 -0.0454 -0.1847  0.3740
  138OSM    H3F14989   1.738   3.460   3.481 -0.5225 -0.8909 -0.6732
  138OSM    H3G14990   1.898   3.412   3.404 -1.0229  1.8426 -0.0560
  138OSM    C4F14991   1.914   3.426   3.615  0.4935 -0.3625  0.7960
  138OSM    H4F14992   1.945   3.532   3.602 -0.0199 -0.0079  2.3780
  138OSM    H4G14993   2.006   3.364   3.619 -0.4789 -1.8456  0.7516
  138OSM    C5F14994   1.835   3.419   3.744  0.3146  0.3768 -0.4062
  138OSM    H5F14995   1.844   3.316   3.783  0.1855  0.5382  0.0508
  138OSM    H5G14996   1.727   3.445   3.742  0.2178 -0.0269 -0.4344
  138OSM    C6F14997   1.892   3.508   3.860  0.1371  0.3500  0.0674
  138OSM    H6F14998   1.901   3.617   3.843 -0.2378  0.4172  0.2919
  138OSM    H6G14999   1.993   3.464   3.873  0.4801  0.6862 -1.2399
  138OSM    C7F15000   1.817   3.496   3.990 -0.1443 -0.8270 -0.0297
  138OSM    H7F15001   1.710   3.503   3.959 -1.4981 -2.6810  3.5582
  138OSM    H7G15002   1.856   3.571   4.062  1.0819 -0.5674 -0.9450
  138OSM    C8F15003   1.828   3.361   4.067 -0.1353  0.2556  0.1503
  138OSM    H8F15004   1.933   3.342   4.097  0.0390 -1.7221 -1.4790
  138OSM    H8G15005   1.802   3.277   3.999  1.6800 -0.7222  0.6092
  138OSM    C9F15006   1.749   3.363   4.197  0.1838  0.3192  0.2907
  138OSM    H9F15007   1.659   3.426   4.197 -0.4354 -0.5069 -1.4285
  138OSM   C10F15008   1.776   3.289   4.307 -0.1671 -0.2039 -0.0511
  138OSM   H10F15009   1.710   3.301   4.393 -0.4988 -1.3828 -0.1147
  138OSM   C11F15010   1.894   3.193   4.329 -0.0657  0.5493 -0.0739
  138OSM   H11F15011   1.918   3.190   4.437  0.4502 -0.3013 -0.1979
  138OSM   H11G15012   1.983   3.229   4.273 -2.1709  2.0847 -2.6888
  138OSM   C12F15013   1.858   3.054   4.279  0.7049  0.7548 -0.1019
  138OSM   H12F15014   1.948   2.997   4.247 -0.2472 -1.2416  0.5568
  138OSM   H12G15015   1.793   3.062   4.189  0.2900 -0.1514  0.0978
  138OSM   C13F15016   1.781   2.970   4.382  0.0851 -0.2988 -0.3957
  138OSM   H13F15017   1.734   2.889   4.322  0.0623 -2.6226  2.5002
  138OSM   H13G15018   1.697   3.033   4.421 -1.2042 -3.1006  1.7662
  138OSM   C14F15019   1.864   2.915   4.506 -0.2463  0.7420  0.7656
  138OSM   H14F15020   1.891   3.005   4.566 -0.3165  1.8196 -0.7685
  138OSM   H14G15021   1.949   2.860   4.461  0.2308  0.1397  2.3025
  138OSM   C15F15022   1.774   2.821   4.597 -0.1760 -0.5265 -0.0251
  138OSM   H15F15023   1.753   2.733   4.532 -0.3411 -2.1113  2.0934
  138OSM   H15G15024   1.686   2.884   4.622  1.3635  1.5436  0.4583
  138OSM   C16F15025   1.853   2.776   4.725  0.3652 -0.1836 -0.3989
  138OSM   H16F15026   1.786   2.699   4.770  0.0776 -0.3451 -1.0965
  138OSM   H16G15027   1.860   2.866   4.790  0.8628  0.8278 -1.8186
  138OSM   C17F15028   1.987   2.711   4.706 -0.1058  0.5355  0.1058
  138OSM   H17F15029   2.025   2.669   4.802  1.8727 -0.1073 -0.9200
  138OSM   H17G15030   2.048   2.792   4.660  0.4914 -0.6506 -1.2351
  138OSM   C18F15031   2.001   2.596   4.603  0.5958  0.4671 -0.3711
  138OSM   H18F15032   2.104   2.554   4.595  0.4569 -0.0829  0.5969
  138OSM   H18G15033   1.961   2.632   4.506  2.7323 -0.2176 -1.5653
  138OSM   H18H15034   1.924   2.518   4.621  1.5659 -0.2645  0.8051
  139OSM      N15035   6.290   4.768   2.636  0.0749 -0.2394 -0.9494
  139OSM    C1515036   6.335   4.734   2.494  0.4803 -0.4402  0.1247
  139OSM   H15A15037   6.260   4.744   2.418  0.7822 -0.5987 -0.1952
  139OSM   H15B15038   6.357   4.628   2.496  0.4686 -0.4426  1.4554
  139OSM   H15C15039   6.427   4.784   2.466  1.6378 -1.4269  1.9067
  139OSM    C1415040   6.384   4.707   2.733  0.0080 -0.1425 -0.2879
  139OSM   H14A15041   6.480   4.757   2.729  0.2471 -0.2801  2.3272
  139OSM   H14B15042   6.411   4.614   2.686 -0.9063 -1.2928  1.3868
  139OSM   H14C15043   6.357   4.692   2.836 -0.1694  0.1653 -0.2890
  139OSM    C1315044   6.296   4.916   2.652  0.1994 -0.5082 -0.9790
  139OSM   H13A15045   6.395   4.956   2.667 -1.0129  1.8123  1.4892
  139OSM   H13B15046   6.221   4.935   2.727  1.7207 -1.5849  0.9166
  139OSM   H13C15047   6.256   4.960   2.562 -0.0898  1.9088  0.2475
  139OSM    C1215048   6.151   4.715   2.655 -0.2107  0.4701 -0.6017
  139OSM   H12A15049   6.146   4.612   2.622  2.2728  0.5119 -1.3163
  139OSM   H12B15050   6.080   4.770   2.594 -2.0953  0.1442  1.1864
  139OSM    C1115051   6.076   4.743   2.791  0.4617  0.2250  0.6104
  139OSM   H11A15052   6.139   4.699   2.870  3.0283  1.9646 -0.3465
  139OSM   H11B15053   5.978   4.693   2.775  0.8751 -0.6003  0.6424
  139OSM      P15054   5.943   4.979   2.746  0.1915  0.1327  0.5641
  139OSM    O1315055   6.020   5.071   2.655 -0.6047 -0.2151  0.3586
  139OSM    O1415056   5.826   4.907   2.681 -0.1665 -0.0104 -0.2630
  139OSM    O1115057   5.877   5.074   2.860  0.3467 -0.0543 -0.1598
  139OSM    O1215058   6.047   4.883   2.816  0.4622 -0.2156 -0.3690
  139OSM    C1S15059   5.756   5.033   2.923 -0.7181 -0.2351 -0.4464
  139OSM    H1S15060   5.691   4.973   2.856  0.5651 -2.4973  0.2155
  139OSM    H1T15061   5.686   5.119   2.929 -3.4468 -2.3564  0.5404
  139OSM     NF15062   5.652   4.906   3.108 -0.4967  0.3336 -0.3810
  139OSM    HNF15063   5.603   4.941   3.187 -0.0396  0.1332 -0.0071
  139OSM    C2S15064   5.779   4.957   3.060  0.5498  0.3182  0.7873
  139OSM    H2S15065   5.840   4.866   3.050  0.3566  0.2577  0.1384
  139OSM    C3S15066   5.841   5.064   3.162  0.3051  0.5100 -0.0702
  139OSM    H3S15067   5.754   5.130   3.184  0.3362  0.1258  1.2862
  139OSM     O315068   5.932   5.160   3.113 -0.0031 -0.0855  0.2381
  139OSM    HO315069   5.932   5.161   3.017  1.0747  1.6199  0.2105
  139OSM    C4S15070   5.880   5.003   3.295 -1.3773 -0.3281  0.2239
  139OSM    H4S15071   5.800   4.995   3.370 -0.7890  1.1163  1.0261
  139OSM    C5S15072   6.008   4.977   3.344 -0.4338  0.6031  0.5792
  139OSM    H5S15073   6.088   5.014   3.278 -0.2624 -0.0549  0.4097
  139OSM    C6S15074   6.054   4.940   3.483 -0.2404  0.0534  0.2398
  139OSM    H6S15075   6.144   5.000   3.510 -1.5021  0.9305  2.8333
  139OSM    H6T15076   6.085   4.834   3.486 -0.3247 -0.0400 -1.2575
  139OSM    C7S15077   5.940   4.969   3.587  0.7913 -0.2964  0.0040
  139OSM    H7S15078   5.849   4.917   3.551 -0.3407  1.4658  0.2091
  139OSM    H7T15079   5.908   5.075   3.579  0.9380 -0.3752 -2.0802
  139OSM    C8S15080   5.968   4.933   3.734 -0.1049  0.4852  0.9350
  139OSM    H8S15081   6.051   4.999   3.768  0.6037  0.7445 -1.1749
  139OSM    H8T15082   6.008   4.830   3.731  3.0017  1.5647 -3.0592
  139OSM    C9S15083   5.850   4.963   3.833  0.0625 -0.1065 -0.2608
  139OSM    H9S15084   5.766   4.897   3.802  0.9797 -0.8238 -1.2919
  139OSM    H9T15085   5.822   5.069   3.816 -0.5445 -0.1027  0.6743
  139OSM   C10S15086   5.885   4.944   3.980 -0.1416  0.7514  0.6375
  139OSM   H10S15087   5.981   4.993   4.004 -0.5854  1.8803  0.1479
  139OSM   H10T15088   5.911   4.837   3.995  0.7080  0.7470 -0.7072
  139OSM   C11S15089   5.784   4.999   4.082  0.2159  0.2729 -0.1746
  139OSM   H11S15090   5.686   4.948   4.088 -0.3002  1.2126 -0.4570
  139OSM   H11T15091   5.760   5.105   4.059 -0.6191  0.2034  0.3546
  139OSM   C12S15092   5.835   5.003   4.228  0.2259  0.8921  0.1549
  139OSM   H12S15093   5.932   5.055   4.239  0.7677 -0.3156  1.2793
  139OSM   H12T15094   5.857   4.898   4.258 -0.6320  1.1237  1.7305
  139OSM   C13S15095   5.725   5.063   4.320 -0.3403 -0.1699  0.3382
  139OSM   H13S15096   5.632   5.004   4.310 -0.4676  0.1229 -0.2039
  139OSM   H13T15097   5.708   5.170   4.293 -2.3308 -0.6453 -0.4209
  139OSM   C14S15098   5.756   5.057   4.478  0.2978  0.0525 -0.0178
  139OSM   H14S15099   5.859   5.091   4.501 -0.4764  1.1236  2.1539
  139OSM   H14T15100   5.759   4.949   4.505  3.0205  0.1585  0.4311
  139OSM   C15S15101   5.653   5.140   4.551  0.6981  0.0085  0.3966
  139OSM   H15S15102   5.557   5.126   4.496  1.0466  0.1228 -0.2549
  139OSM   H15T15103   5.689   5.244   4.540  2.3767 -0.6643 -0.7679
  139OSM   C16S15104   5.636   5.090   4.698  1.0091  0.7456 -0.3634
  139OSM   H16S15105   5.624   4.980   4.708  2.2025  0.7138  1.1455
  139OSM   H16T15106   5.544   5.141   4.735 -0.7203 -0.9196 -2.1460
  139OSM   C17S15107   5.753   5.127   4.803 -0.0868 -0.0354  0.9730
  139OSM   H17S15108   5.766   5.234   4.780 -2.1287 -0.1661 -1.1832
  139OSM   H17T15109   5.849   5.079   4.772 -0.0427  0.8846 -0.4216
  139OSM   C18S15110   5.721   5.097   4.954 -0.0730  0.2421  0.6846
  139OSM   H18S15111   5.639   5.164   4.989 -0.1979 -0.2419  1.3244
  139OSM   H18T15112   5.810   5.127   5.012  0.9539  0.0450 -0.7307
  139OSM   H18U15113   5.700   4.989   4.967  0.4833  0.0078 -0.2829
  139OSM    C1F15114   5.589   4.798   3.059  1.0938  0.4856 -0.6455
  139OSM     OF15115   5.642   4.742   2.966 -0.4802 -0.2621  0.3618
  139OSM    C2F15116   5.444   4.757   3.106 -0.7895 -0.1790  0.8023
  139OSM    H2F15117   5.400   4.704   3.019  0.0729 -0.0840  0.2950
  139OSM    H2G15118   5.377   4.842   3.128 -2.2022 -1.1359  0.3349
  139OSM    C3F15119   5.448   4.658   3.223  0.6218 -0.0720 -0.1378
  139OSM    H3F15120   5.519   4.575   3.201 -0.7997 -0.7866 -2.2827
  139OSM    H3G15121   5.349   4.609   3.232  0.1555  0.9154  0.2574
  139OSM    C4F15122   5.468   4.729   3.360 -0.0470  0.4623  0.4923
  139OSM    H4F15123   5.391   4.810   3.367  1.3785  1.9345 -0.1984
  139OSM    H4G15124   5.565   4.782   3.358  0.1046  0.1676 -0.4655
  139OSM    C5F15125   5.451   4.636   3.477  0.0823 -0.0993 -0.0636
  139OSM    H5F15126   5.472   4.534   3.441  1.8974  0.4761 -0.7225
  139OSM    H5G15127   5.346   4.648   3.512  0.1545 -0.4104  0.2636
  139OSM    C6F15128   5.534   4.675   3.602  0.1377 -0.4090  0.0092
  139OSM    H6F15129   5.634   4.718   3.582  1.3593 -2.4017  1.4831
  139OSM    H6G15130   5.550   4.586   3.666 -1.3122 -0.5678  0.1937
  139OSM    C7F15131   5.459   4.781   3.701  0.1916 -0.3310  0.2795
  139OSM    H7F15132   5.348   4.783   3.693  0.2386 -0.2362 -0.4071
  139OSM    H7G15133   5.493   4.883   3.673 -0.0932 -0.5943 -1.0928
  139OSM    C8F15134   5.503   4.756   3.849  0.8852  0.1309 -0.4650
  139OSM    H8F15135   5.458   4.846   3.895  0.6737 -0.3311  0.2532
  139OSM    H8G15136   5.613   4.759   3.860  1.0745  1.3552 -2.2663
  139OSM    C9F15137   5.459   4.630   3.920  0.2728  0.2592 -0.5111
  139OSM    H9F15138   5.439   4.538   3.864  0.0102 -0.0246  0.0436
  139OSM   C10F15139   5.428   4.624   4.051 -0.5090 -0.1276 -0.1198
  139OSM   H10F15140   5.380   4.530   4.084  0.3169 -0.2958  0.6360
  139OSM   C11F15141   5.444   4.724   4.160  0.1470  0.6628 -0.3659
  139OSM   H11F15142   5.344   4.764   4.187 -0.6627 -2.0296  0.9930
  139OSM   H11G15143   5.495   4.818   4.130 -0.8369  1.1192 -0.6661
  139OSM   C12F15144   5.509   4.669   4.285 -0.2946  0.5162 -0.7634
  139OSM   H12F15145   5.503   4.747   4.363 -2.1698 -0.8477  0.5275
  139OSM   H12G15146   5.616   4.643   4.266 -0.6608 -3.8219  1.9573
  139OSM   C13F15147   5.440   4.541   4.346  0.0537 -0.2175 -0.3352
  139OSM   H13F15148   5.460   4.451   4.286 -1.5671 -1.8564  1.4356
  139OSM   H13G15149   5.331   4.551   4.365  0.0324  2.4835 -1.4332
  139OSM   C14F15150   5.518   4.499   4.483  0.5292 -0.7140 -0.4005
  139OSM   H14F15151   5.510   4.570   4.569  0.7917 -2.2221  0.9101
  139OSM   H14G15152   5.628   4.498   4.470  1.0060  1.8845  2.2501
  139OSM   C15F15153   5.469   4.370   4.547 -0.1891 -0.2238  0.2980
  139OSM   H15F15154   5.489   4.297   4.466  0.0140  0.9180 -0.7020
  139OSM   H15G15155   5.359   4.384   4.552 -0.2337 -0.7353  1.0495
  139OSM   C16F15156   5.517   4.340   4.688  0.1458  0.2697 -0.7001
  139OSM   H16F15157   5.468   4.243   4.713 -0.5243  0.7584 -0.0593
  139OSM   H16G15158   5.490   4.423   4.757  0.0356 -1.1193  1.0127
  139OSM   C17F15159   5.664   4.308   4.695 -0.1303  0.1354 -0.1551
  139OSM   H17F15160   5.705   4.315   4.798  1.9485 -1.3126 -0.8061
  139OSM   H17G15161   5.721   4.385   4.639  2.4654 -1.5645  0.0140
  139OSM   C18F15162   5.721   4.174   4.644  0.4139 -0.0019 -0.5042
  139OSM   H18F15163   5.658   4.143   4.557 -1.7198 -1.2341  1.3737
  139OSM   H18G15164   5.725   4.098   4.725 -2.5825 -1.0784 -1.2032
  139OSM   H18H15165   5.821   4.181   4.595  0.5137  1.4780 -0.1279
  140OSM      N15166   3.544   1.621   2.682  0.0162  0.3418  0.5456
  140OSM    C1515167   3.676   1.595   2.738  0.3125 -0.1151 -0.0931
  140OSM   H15A15168   3.713   1.497   2.713  3.7593  0.9201  0.3812
  140OSM   H15B15169   3.669   1.603   2.845 -0.1854  3.0370 -0.2760
  140OSM   H15C15170   3.756   1.665   2.716 -0.6735  0.7526 -1.0047
  140OSM    C1415171   3.542   1.625   2.534 -0.3987  0.4122 -0.2802
  140OSM   H14A15172   3.441   1.627   2.496 -0.3246 -1.7403 -0.7441
  140OSM   H14B15173   3.587   1.537   2.489 -0.0679  1.0092 -1.1507
  140OSM   H14C15174   3.606   1.707   2.504  0.1034  0.4801  0.9259
  140OSM    C1315175   3.453   1.503   2.716  0.5901  0.5943  0.0157
  140OSM   H13A15176   3.421   1.520   2.818  2.2745  1.4268  0.4374
  140OSM   H13B15177   3.503   1.407   2.718 -0.0230  0.2679  1.3356
  140OSM   H13C15178   3.361   1.500   2.658 -0.5652 -0.0195  1.7777
  140OSM    C1215179   3.488   1.751   2.731  0.0270 -0.1433 -0.4982
  140OSM   H12A15180   3.390   1.776   2.693 -0.5411 -0.8221  0.4725
  140OSM   H12B15181   3.555   1.824   2.690  1.2520 -1.8251 -1.6218
  140OSM    C1115182   3.478   1.776   2.885  0.3855  0.1806 -0.3990
  140OSM   H11A15183   3.409   1.698   2.924 -0.8121  1.9061  1.0746
  140OSM   H11B15184   3.426   1.874   2.892 -2.3854 -1.1455 -1.1715
  140OSM      P15185   3.702   1.896   2.947  0.1493 -0.5114  0.2514
  140OSM    O1315186   3.835   1.842   2.923 -0.1686 -0.3082 -0.6148
  140OSM    O1415187   3.652   2.001   2.850  0.6115  0.7022 -0.3926
  140OSM    O1115188   3.688   1.961   3.087  0.1609  0.4856  0.1644
  140OSM    O1215189   3.603   1.765   2.961  0.0641 -0.0289  0.0357
  140OSM    C1S15190   3.688   1.883   3.207  0.3830  0.5562  0.4410
  140OSM    H1S15191   3.762   1.801   3.200 -1.0404 -0.8335  1.1614
  140OSM    H1T15192   3.590   1.833   3.217  0.0680  1.2320  0.7574
  140OSM     NF15193   3.691   1.878   3.449  0.1698  0.2778  0.4408
  140OSM    HNF15194   3.606   1.859   3.498 -0.3700  0.0689 -0.5379
  140OSM    C2S15195   3.692   1.971   3.338  0.3517 -0.2230  0.1192
  140OSM    H2S15196   3.784   2.034   3.342  0.3988 -0.1605 -1.5403
  140OSM    C3S15197   3.577   2.072   3.345  0.0822  0.1448 -0.0867
  140OSM    H3S15198   3.488   2.007   3.362  0.1042  0.5142  1.6825
  140OSM     O315199   3.561   2.146   3.224  0.5573 -0.4873  0.5577
  140OSM    HO315200   3.616   2.096   3.164 -1.7206 -1.3953 -0.8879
  140OSM    C4S15201   3.589   2.161   3.465 -0.3230 -0.0112 -0.0572
  140OSM    H4S15202   3.572   2.110   3.562 -1.3832 -0.5193 -0.4919
  140OSM    C5S15203   3.623   2.294   3.463 -1.2873 -0.1964  0.0018
  140OSM    H5S15204   3.652   2.336   3.366 -3.1135  1.8821  0.2692
  140OSM    C6S15205   3.658   2.378   3.585  1.0301  0.4453  0.0110
  140OSM    H6S15206   3.596   2.470   3.587 -0.5283 -0.5682  0.6689
  140OSM    H6T15207   3.766   2.401   3.587  0.8823  1.1157  1.8002
  140OSM    C7S15208   3.613   2.316   3.715 -0.5043 -0.3406  0.6733
  140OSM    H7S15209   3.680   2.228   3.731 -1.2494 -1.7224 -2.9944
  140OSM    H7T15210   3.511   2.274   3.719 -0.5226 -0.2331  1.9490
  140OSM    C8S15211   3.622   2.418   3.830  0.5580 -0.0403 -0.0378
  140OSM    H8S15212   3.534   2.485   3.820  0.2907 -0.3421  0.2886
  140OSM    H8T15213   3.721   2.467   3.836  1.3074 -1.6667  1.5368
  140OSM    C9S15214   3.589   2.342   3.959  0.4393  0.1387 -0.1360
  140OSM    H9S15215   3.681   2.289   3.991  0.8981  1.1120  0.2065
  140OSM    H9T15216   3.517   2.267   3.919  0.5684  0.3796 -0.8342
  140OSM   C10S15217   3.539   2.424   4.081  0.1831 -0.1274 -0.0677
  140OSM   H10S15218   3.492   2.521   4.054  1.7450  0.9072  0.7689
  140OSM   H10T15219   3.625   2.452   4.145  0.2937  0.0126 -0.2745
  140OSM   C11S15220   3.447   2.345   4.173  0.4531  0.6378 -0.5313
  140OSM   H11S15221   3.498   2.309   4.264 -1.2120  0.6195  0.4289
  140OSM   H11T15222   3.404   2.261   4.115 -1.1031  0.7648  0.3831
  140OSM   C12S15223   3.334   2.427   4.229  0.3829 -0.1961  0.1581
  140OSM   H12S15224   3.305   2.474   4.133  0.9945  0.4082  0.2648
  140OSM   H12T15225   3.370   2.500   4.305 -1.4079 -2.2899  3.2624
  140OSM   C13S15226   3.222   2.346   4.291 -0.0140  0.4680  0.6417
  140OSM   H13S15227   3.253   2.294   4.383  0.5898 -0.5325 -0.1128
  140OSM   H13T15228   3.206   2.269   4.212 -0.7827  1.5796 -0.3303
  140OSM   C14S15229   3.090   2.422   4.311  0.6003 -0.2198 -0.3718
  140OSM   H14S15230   3.005   2.351   4.316  0.6265 -0.2776 -0.7707
  140OSM   H14T15231   3.072   2.488   4.223 -3.1547  0.0958  0.4671
  140OSM   C15S15232   3.084   2.504   4.444 -0.1410 -0.2606  0.9546
  140OSM   H15S15233   2.983   2.548   4.454 -0.0979  0.8966 -2.3556
  140OSM   H15T15234   3.149   2.591   4.416 -0.2591 -1.1665 -2.5823
  140OSM   C16S15235   3.125   2.419   4.565  0.2790 -0.1535 -0.2559
  140OSM   H16S15236   3.234   2.402   4.570  0.3746  0.3627 -0.5586
  140OSM   H16T15237   3.076   2.320   4.564 -2.3864  1.0614 -0.3311
  140OSM   C17S15238   3.088   2.495   4.696 -0.4451  0.1877 -0.1281
  140OSM   H17S15239   2.979   2.515   4.681 -0.4728 -1.0169 -1.9221
  140OSM   H17T15240   3.141   2.592   4.699  1.6557 -0.9330  1.2151
  140OSM   C18S15241   3.128   2.414   4.828 -1.0847 -0.9822  0.2542
  140OSM   H18S15242   3.093   2.468   4.918  0.4591  1.4452 -0.5081
  140OSM   H18T15243   3.239   2.406   4.825 -0.9567  0.6117  0.1370
  140OSM   H18U15244   3.083   2.313   4.845 -0.8784 -1.1284 -0.0559
  140OSM    C1F15245   3.806   1.812   3.475 -0.1755  0.8085  0.1720
  140OSM     OF15246   3.904   1.823   3.401 -0.0487  0.6752 -0.3080
  140OSM    C2F15247   3.800   1.717   3.599 -0.3165  0.7009 -0.1766
  140OSM    H2F15248   3.708   1.747   3.652 -0.2451  0.4751  0.0772
  140OSM    H2G15249   3.891   1.735   3.660  1.7580 -0.7929 -2.6067
  140OSM    C3F15250   3.786   1.570   3.554 -0.1948  0.0910  0.6125
  140OSM    H3F15251   3.869   1.550   3.483  1.0335  1.2335  1.6743
  140OSM    H3G15252   3.703   1.562   3.480  0.7959 -0.7093 -0.4440
  140OSM    C4F15253   3.767   1.470   3.668  0.3712  0.4214 -0.0413
  140OSM    H4F15254   3.724   1.374   3.630 -0.2160  0.6137  0.1204
  140OSM    H4G15255   3.684   1.500   3.735 -0.9363 -2.7942 -0.0026
  140OSM    C5F15256   3.886   1.441   3.760  0.4198 -0.4240 -0.1975
  140OSM    H5F15257   3.900   1.529   3.826 -1.3984  1.0330 -1.6352
  140OSM    H5G15258   3.972   1.413   3.696  0.3051  0.0416 -0.5619
  140OSM    C6F15259   3.858   1.331   3.859  0.2056 -0.9412  0.0752
  140OSM    H6F15260   3.832   1.230   3.820 -1.2973 -0.7715  0.5690
  140OSM    H6G15261   3.774   1.365   3.923  0.1019  2.5572 -1.6718
  140OSM    C7F15262   3.984   1.314   3.939 -0.2415  0.0578 -0.9674
  140OSM    H7F15263   4.008   1.407   3.996 -0.8845  0.2656 -1.0293
  140OSM    H7G15264   4.062   1.271   3.873  1.3103 -0.7162  1.2474
  140OSM    C8F15265   3.958   1.201   4.049  0.1421 -0.0116  0.5522
  140OSM    H8F15266   3.913   1.107   4.011  0.1192 -0.0948  0.7879
  140OSM    H8G15267   3.896   1.251   4.126  0.9873  0.3327  1.0218
  140OSM    C9F15268   4.086   1.162   4.106 -0.0173  0.1827 -0.2084
  140OSM    H9F15269   4.150   1.096   4.045  0.5922  1.6430 -1.2231
  140OSM   C10F15270   4.133   1.194   4.230 -0.2478 -0.0283 -0.4007
  140OSM   H10F15271   4.232   1.161   4.263 -0.4337 -1.3131 -1.0794
  140OSM   C11F15272   4.062   1.295   4.327  0.3519 -0.0110  0.4083
  140OSM   H11F15273   4.007   1.365   4.261  0.4562  1.0470  1.4183
  140OSM   H11G15274   4.136   1.351   4.388 -0.1535  0.2661  0.7817
  140OSM   C12F15275   3.946   1.242   4.409 -0.0983  0.3694  0.3035
  140OSM   H12F15276   3.881   1.178   4.344  0.8016 -1.1237  0.8187
  140OSM   H12G15277   3.882   1.327   4.439 -2.2684 -0.4604 -1.6366
  140OSM   C13F15278   3.997   1.175   4.533 -0.1681  0.2259  1.0288
  140OSM   H13F15279   4.069   1.240   4.587 -0.2959 -0.1716  1.6858
  140OSM   H13G15280   4.057   1.086   4.503 -1.0921  0.3651 -1.4367
  140OSM   C14F15281   3.869   1.130   4.620  0.1382  0.1801 -0.2208
  140OSM   H14F15282   3.782   1.198   4.610  0.0529  0.1561  0.3374
  140OSM   H14G15283   3.900   1.138   4.726 -1.5339  1.9284  0.1918
  140OSM   C15F15284   3.819   0.986   4.600  0.3443  0.2731  0.2446
  140OSM   H15F15285   3.909   0.919   4.598 -0.1920 -0.4741  0.5513
  140OSM   H15G15286   3.771   0.972   4.501  1.1535 -0.8717 -0.0131
  140OSM   C16F15287   3.726   0.944   4.718  0.3464  0.2566 -0.9507
  140OSM   H16F15288   3.640   1.013   4.713  0.4887  0.3512 -2.2021
  140OSM   H16G15289   3.780   0.966   4.813 -0.9478  1.0520 -0.3794
  140OSM   C17F15290   3.659   0.808   4.704 -0.8798  0.1460 -0.1412
  140OSM   H17F15291   3.630   0.792   4.810  1.8850  0.6501  0.7600
  140OSM   H17G15292   3.732   0.728   4.680 -1.1029  0.0590 -0.5465
  140OSM   C18F15293   3.542   0.788   4.605 -0.7333 -0.0951 -0.1683
  140OSM   H18F15294   3.563   0.808   4.498  0.9127 -0.6791  0.0243
  140OSM   H18G15295   3.462   0.860   4.633 -1.4300  0.2503 -2.8027
  140OSM   H18H15296   3.494   0.688   4.609 -1.9561  0.4381 -0.8699
  141OSM      N15297   5.807   6.444   2.865 -0.2300 -0.2363 -0.1938
  141OSM    C1515298   5.823   6.373   2.998 -0.2312 -0.4512 -0.0545
  141OSM   H15A15299   5.926   6.372   3.028  0.3010  0.3802 -1.7384
  141OSM   H15B15300   5.780   6.274   2.988  0.1438 -0.9239  2.4860
  141OSM   H15C15301   5.763   6.427   3.069  2.1035  0.3400  1.4254
  141OSM    C1415302   5.835   6.592   2.879  0.1105  0.3355  0.4288
  141OSM   H14A15303   5.766   6.618   2.958 -0.0444 -0.9154  0.7293
  141OSM   H14B15304   5.792   6.642   2.793 -0.6844 -2.0653 -0.6574
  141OSM   H14C15305   5.937   6.622   2.899  0.9010 -1.2167 -1.0429
  141OSM    C1315306   5.921   6.394   2.776  0.7805 -0.0127 -0.5552
  141OSM   H13A15307   5.899   6.291   2.751  1.0113  0.1104 -1.2967
  141OSM   H13B15308   6.020   6.403   2.818  1.0707 -0.1748 -1.1942
  141OSM   H13C15309   5.914   6.453   2.686  1.1758  2.6055  1.0396
  141OSM    C1215310   5.680   6.419   2.800  0.9794 -0.3878  0.5377
  141OSM   H12A15311   5.680   6.466   2.703  3.4538 -2.7862 -0.7482
  141OSM   H12B15312   5.610   6.483   2.852 -0.6652 -1.7123  0.0424
  141OSM    C1115313   5.612   6.283   2.776 -0.1473  0.5228  0.1029
  141OSM   H11A15314   5.674   6.229   2.703  0.9581 -0.9613  2.0441
  141OSM   H11B15315   5.514   6.295   2.725 -0.3066  0.5010  0.4019
  141OSM      P15316   5.548   6.063   2.897 -0.4539  0.4760  0.3526
  141OSM    O1315317   5.403   6.060   2.876 -0.2577 -0.0060  0.5826
  141OSM    O1415318   5.639   5.987   2.807 -0.2045  0.1092 -0.1159
  141OSM    O1115319   5.568   6.019   3.045 -0.3918  0.6298  0.1285
  141OSM    O1215320   5.587   6.216   2.905  0.7073 -0.0721  0.2640
  141OSM    C1S15321   5.614   6.095   3.155  1.0101  0.2676  0.4622
  141OSM    H1S15322   5.575   6.198   3.154  0.7370  0.2017 -1.9795
  141OSM    H1T15323   5.724   6.101   3.141  0.7961  1.4773 -0.8675
  141OSM     NF15324   5.635   6.092   3.408  0.1644 -0.1401 -0.0853
  141OSM    HNF15325   5.719   6.048   3.439 -0.3922 -1.9457 -0.9823
  141OSM    C2S15326   5.587   6.017   3.290  0.1679  0.4500  0.0331
  141OSM    H2S15327   5.478   6.000   3.302  0.3322 -2.1781 -1.3139
  141OSM    C3S15328   5.646   5.869   3.274 -0.3183  0.0686 -0.1779
  141OSM    H3S15329   5.757   5.873   3.266 -0.2388  2.9397  1.0001
  141OSM     O315330   5.605   5.798   3.159 -0.0659 -0.2432  0.8811
  141OSM    HO315331   5.592   5.871   3.098  0.9312  2.2029  3.3265
  141OSM    C4S15332   5.602   5.778   3.390  0.2027 -0.2501  0.3055
  141OSM    H4S15333   5.496   5.754   3.377  0.0284  0.7843 -0.2646
  141OSM    C5S15334   5.666   5.737   3.502  0.3196  0.3055 -0.5955
  141OSM    H5S15335   5.769   5.764   3.527  0.2414 -0.1812  0.3053
  141OSM    C6S15336   5.593   5.658   3.617 -0.1516 -0.0788 -0.6747
  141OSM    H6S15337   5.642   5.565   3.651  0.5661  0.4446 -0.2250
  141OSM    H6T15338   5.487   5.634   3.594  0.0501 -0.3583 -1.3579
  141OSM    C7S15339   5.603   5.747   3.747  0.1021  0.6328 -0.8593
  141OSM    H7S15340   5.550   5.843   3.728  2.0742  1.7431 -0.9759
  141OSM    H7T15341   5.709   5.777   3.763 -0.1412  0.4268  1.4358
  141OSM    C8S15342   5.546   5.683   3.869 -0.1603  0.1438  0.0266
  141OSM    H8S15343   5.583   5.578   3.878 -0.8054 -0.0668  0.3191
  141OSM    H8T15344   5.435   5.681   3.867 -0.2014 -3.4391 -0.3115
  141OSM    C9S15345   5.589   5.761   3.998 -0.1725 -0.0405 -0.4057
  141OSM    H9S15346   5.550   5.865   3.989 -1.2472 -0.1901  1.8148
  141OSM    H9T15347   5.700   5.761   4.005 -0.1785  2.5956  1.0703
  141OSM   C10S15348   5.532   5.708   4.125  0.8196  0.0852  0.3881
  141OSM   H10S15349   5.561   5.601   4.127  1.6034  0.3110  1.3425
  141OSM   H10T15350   5.422   5.697   4.109  0.6710 -3.0612  2.6764
  141OSM   C11S15351   5.588   5.778   4.250  0.4887 -0.0601 -0.6116
  141OSM   H11S15352   5.532   5.873   4.255 -0.5857 -0.6714 -0.5996
  141OSM   H11T15353   5.695   5.806   4.235  0.6106 -0.3190 -0.2543
  141OSM   C12S15354   5.579   5.699   4.382 -0.0118  0.4280  0.3378
  141OSM   H12S15355   5.648   5.612   4.375  0.9169  1.0510  1.3547
  141OSM   H12T15356   5.475   5.665   4.401  0.8037 -0.6469  3.5440
  141OSM   C13S15357   5.632   5.778   4.506  0.6445  0.5623  0.0761
  141OSM   H13S15358   5.580   5.876   4.516  1.4565  0.9671  0.4744
  141OSM   H13T15359   5.741   5.796   4.495  1.0957 -0.8581  1.7699
  141OSM   C14S15360   5.617   5.693   4.633  0.1866 -0.1298  0.1152
  141OSM   H14S15361   5.627   5.583   4.615  2.9610  0.0722  0.0429
  141OSM   H14T15362   5.524   5.719   4.688  0.0260  0.6115 -0.4953
  141OSM   C15S15363   5.722   5.721   4.736 -0.4674 -0.0433  0.3807
  141OSM   H15S15364   5.702   5.823   4.775 -1.8063  0.2300 -0.9689
  141OSM   H15T15365   5.814   5.709   4.675 -0.9738 -0.8284 -0.2417
  141OSM   C16S15366   5.724   5.610   4.848 -0.1756  0.0885  0.7163
  141OSM   H16S15367   5.803   5.623   4.925  2.4675 -0.3854 -1.7652
  141OSM   H16T15368   5.732   5.510   4.801 -1.3492  0.4949 -0.4023
  141OSM   C17S15369   5.573   5.598   4.909  0.1887  0.3326 -0.0017
  141OSM   H17S15370   5.501   5.567   4.831  0.8957  0.0141 -0.5334
  141OSM   H17T15371   5.545   5.693   4.960 -0.3225 -0.5104  1.3586
  141OSM   C18S15372   5.565   5.488   5.017 -0.4215  0.7593 -0.6288
  141OSM   H18S15373   5.639   5.515   5.096 -1.5212  1.5805  0.1441
  141OSM   H18T15374   5.594   5.389   4.976  2.3618  1.2838 -0.1622
  141OSM   H18U15375   5.466   5.496   5.067 -0.3860  0.9907 -0.5934
  141OSM    C1F15376   5.575   6.196   3.464  0.0205 -0.4156 -0.0182
  141OSM     OF15377   5.469   6.233   3.423  0.0340  0.4407  0.0479
  141OSM    C2F15378   5.639   6.265   3.577  0.0143 -0.5656  0.2528
  141OSM    H2F15379   5.622   6.375   3.568  2.4736  0.1903  3.0796
  141OSM    H2G15380   5.750   6.262   3.568  0.0711  0.7635  0.3070
  141OSM    C3F15381   5.593   6.207   3.711 -0.1172 -0.8059 -0.4236
  141OSM    H3F15382   5.602   6.096   3.701  0.0328 -0.8638  0.3205
  141OSM    H3G15383   5.483   6.224   3.720  0.1398  1.2320 -0.6393
  141OSM    C4F15384   5.670   6.254   3.838 -0.3978  0.5352  0.0930
  141OSM    H4F15385   5.664   6.362   3.864  2.5245  1.0986 -1.0702
  141OSM    H4G15386   5.776   6.220   3.827 -0.4918 -0.8272  2.6980
  141OSM    C5F15387   5.616   6.195   3.969 -0.2313  0.9585  0.0114
  141OSM    H5F15388   5.605   6.087   3.946 -1.0702  1.0772 -0.1944
  141OSM    H5G15389   5.511   6.230   3.981 -0.9317 -1.1837  0.5303
  141OSM    C6F15390   5.698   6.236   4.086 -0.5566 -0.3445  0.2651
  141OSM    H6F15391   5.671   6.338   4.120 -1.3579  0.0093 -1.3536
  141OSM    H6G15392   5.807   6.247   4.065 -0.5341 -0.6327  0.2266
  141OSM    C7F15393   5.671   6.151   4.215  0.3593 -0.6926 -0.1859
  141OSM    H7F15394   5.666   6.043   4.188 -0.5847 -0.4286 -1.1365
  141OSM    H7G15395   5.562   6.160   4.235  0.5063  1.6253 -0.2239
  141OSM    C8F15396   5.757   6.181   4.347  0.4106  0.3964  1.2067
  141OSM    H8F15397   5.858   6.137   4.331 -0.4658 -1.9344  1.7436
  141OSM    H8G15398   5.709   6.122   4.427 -1.5408 -0.3675 -0.4360
  141OSM    C9F15399   5.769   6.323   4.391  0.0739 -0.2443 -0.2557
  141OSM    H9F15400   5.695   6.387   4.341 -1.1971  0.3699  2.2330
  141OSM   C10F15401   5.877   6.378   4.446  1.0036  0.1109  0.5951
  141OSM   H10F15402   5.857   6.479   4.484 -0.4414 -0.2668  0.9365
  141OSM   C11F15403   5.982   6.299   4.525 -0.2770 -0.7256  0.3239
  141OSM   H11F15404   6.080   6.347   4.505 -0.4741 -0.6749 -0.5761
  141OSM   H11G15405   5.992   6.193   4.495  5.0056 -1.2750  2.8051
  141OSM   C12F15406   5.970   6.300   4.682 -0.2185 -0.3935 -0.0876
  141OSM   H12F15407   5.994   6.403   4.717  1.3257 -1.0307  0.8509
  141OSM   H12G15408   6.043   6.224   4.717  0.2199 -0.8305 -1.8225
  141OSM   C13F15409   5.837   6.267   4.734  0.5592  0.2272 -0.5963
  141OSM   H13F15410   5.804   6.175   4.680 -0.8978  1.6326 -2.2147
  141OSM   H13G15411   5.764   6.350   4.723  0.4859  0.8202  3.1548
  141OSM   C14F15412   5.838   6.230   4.887 -0.3150 -0.3500  0.5954
  141OSM   H14F15413   5.860   6.321   4.946 -0.8887  1.1606 -1.4263
  141OSM   H14G15414   5.925   6.165   4.911  0.6425  0.5878 -0.2720
  141OSM   C15F15415   5.704   6.167   4.928 -0.4076  0.1576 -0.6286
  141OSM   H15F15416   5.683   6.075   4.870 -1.0892  0.0766 -0.2579
  141OSM   H15G15417   5.615   6.234   4.928 -0.1287  0.5877  1.0093
  141OSM   C16F15418   5.713   6.116   5.074 -0.1408 -0.3389 -1.3840
  141OSM   H16F15419   5.686   6.192   5.150  0.6557 -1.4918  0.1140
  141OSM   H16G15420   5.804   6.058   5.100 -0.2167 -1.2691 -3.0967
  141OSM   C17F15421   5.595   6.012   5.091 -0.8342  0.5568 -0.4915
  141OSM   H17F15422   5.596   5.941   5.006  1.4918  0.9546 -0.8707
  141OSM   H17G15423   5.497   6.064   5.082 -0.1891  2.2169  1.2522
  141OSM   C18F15424   5.595   5.945   5.234 -0.2252  0.1758  0.7024
  141OSM   H18F15425   5.690   5.897   5.265  0.6427  1.7987  0.6613
  141OSM   H18G15426   5.521   5.862   5.237  0.9460 -0.8912  3.2255
  141OSM   H18H15427   5.577   6.028   5.306  1.7545  3.4860 -2.2760
  142OSM      N15428   5.614   3.119   1.990 -0.2133  0.4324 -0.3599
  142OSM    C1515429   5.691   3.002   1.951  0.2043 -0.4480 -0.9503
  142OSM   H15A15430   5.646   2.912   1.990  1.6383 -1.1095 -0.7514
  142OSM   H15B15431   5.794   3.005   1.985 -0.3868  2.0393  0.9289
  142OSM   H15C15432   5.700   2.996   1.843  0.2161  0.4111 -0.9999
  142OSM    C1415433   5.677   3.242   1.935 -0.0666 -0.7843 -0.1553
  142OSM   H14A15434   5.603   3.316   1.960 -1.7063 -2.1282 -0.7911
  142OSM   H14B15435   5.695   3.235   1.829 -2.3854  0.2699 -0.6763
  142OSM   H14C15436   5.773   3.265   1.979 -0.5308  0.7435  0.0877
  142OSM    C1315437   5.480   3.105   1.931  0.4614 -0.1665  0.4987
  142OSM   H13A15438   5.482   3.143   1.830  0.1881  1.0749  0.9385
  142OSM   H13B15439   5.412   3.171   1.983  0.2925  0.5149 -0.5652
  142OSM   H13C15440   5.446   3.004   1.948 -0.1363 -0.0925 -0.2141
  142OSM    C1215441   5.604   3.128   2.141  0.4660  0.0105  0.4032
  142OSM   H12A15442   5.591   3.033   2.191 -0.5876  0.0089  0.1467
  142OSM   H12B15443   5.518   3.180   2.180  0.0982 -1.4758  1.6900
  142OSM    C1115444   5.728   3.177   2.208 -1.0513  0.1757  0.0654
  142OSM   H11A15445   5.716   3.213   2.313 -0.9509 -1.3791  0.6271
  142OSM   H11B15446   5.759   3.274   2.163 -0.0331 -0.0827  0.1839
  142OSM      P15447   5.858   2.977   2.301 -0.1048  0.1239  0.3314
  142OSM    O1315448   5.955   2.874   2.243  0.0778 -0.5824  0.0260
  142OSM    O1415449   5.892   3.038   2.430  0.0635 -0.1713  0.4790
  142OSM    O1115450   5.713   2.914   2.319  0.0726 -0.0140  0.4994
  142OSM    O1215451   5.829   3.080   2.191  0.1152  0.0011 -0.1990
  142OSM    C1S15452   5.710   2.781   2.375  0.5590 -0.9968 -0.0824
  142OSM    H1S15453   5.795   2.711   2.361  0.2059 -1.3419 -0.5305
  142OSM    H1T15454   5.621   2.735   2.326  0.1317 -0.4183  0.1334
  142OSM     NF15455   5.666   2.643   2.576  0.1565  0.1616 -1.0114
  142OSM    HNF15456   5.575   2.603   2.585 -0.9321  2.8225  1.7252
  142OSM    C2S15457   5.676   2.780   2.527  0.0188  0.8101 -0.3279
  142OSM    H2S15458   5.757   2.833   2.582 -2.7351  3.3792  1.5597
  142OSM    C3S15459   5.553   2.867   2.554  0.5782 -0.3861 -1.1853
  142OSM    H3S15460   5.458   2.835   2.507  0.7978 -0.9985 -1.2134
  142OSM     O315461   5.561   3.005   2.529  0.2121  0.1855  0.4761
  142OSM    HO315462   5.636   2.998   2.469  0.4080  0.0471  0.7354
  142OSM    C4S15463   5.521   2.857   2.699 -0.1518  0.7967 -0.3790
  142OSM    H4S15464   5.595   2.884   2.776 -1.0335  0.0570  0.7605
  142OSM    C5S15465   5.409   2.808   2.752  0.5320  0.3712  0.1944
  142OSM    H5S15466   5.323   2.774   2.693  1.2286  0.1364 -0.7079
  142OSM    C6S15467   5.391   2.782   2.899 -0.3190  0.0982  0.3019
  142OSM    H6S15468   5.293   2.823   2.930 -0.0883  0.2447  0.8538
  142OSM    H6T15469   5.471   2.828   2.962  1.9391 -2.7470 -0.2622
  142OSM    C7S15470   5.402   2.637   2.943  0.4274  0.2121 -0.3979
  142OSM    H7S15471   5.508   2.603   2.952  0.5939  1.1492  1.8736
  142OSM    H7T15472   5.350   2.566   2.875 -0.4731  2.4892 -2.2403
  142OSM    C8S15473   5.349   2.603   3.080 -0.5981  0.5661 -0.1183
  142OSM    H8S15474   5.240   2.625   3.085 -0.5363  0.7484  0.5050
  142OSM    H8T15475   5.399   2.663   3.159  2.0279 -0.5876 -0.7951
  142OSM    C9S15476   5.358   2.450   3.108  0.1135 -0.3968 -0.0817
  142OSM    H9S15477   5.464   2.417   3.112  0.2736  0.2272  2.0454
  142OSM    H9T15478   5.310   2.388   3.029 -1.3964 -0.2608  0.7016
  142OSM   C10S15479   5.296   2.411   3.246 -0.1663 -0.2045 -0.0639
  142OSM   H10S15480   5.282   2.300   3.246  0.5920 -0.3007  0.2256
  142OSM   H10T15481   5.193   2.453   3.254  0.5192  1.0439  4.5778
  142OSM   C11S15482   5.366   2.466   3.365 -0.9309  0.7791  0.6755
  142OSM   H11S15483   5.346   2.575   3.357 -3.7835  0.2348 -1.2888
  142OSM   H11T15484   5.476   2.451   3.352 -0.6559  2.3552  1.0055
  142OSM   C12S15485   5.325   2.413   3.504 -0.7391  0.2272 -0.3737
  142OSM   H12S15486   5.332   2.302   3.502  1.8451  0.1783  3.2076
  142OSM   H12T15487   5.222   2.439   3.538 -0.9237  0.4573 -1.0866
  142OSM   C13S15488   5.420   2.455   3.616 -0.1169 -0.0746 -0.3225
  142OSM   H13S15489   5.437   2.564   3.615  0.0118 -0.0740  0.7262
  142OSM   H13T15490   5.518   2.408   3.592  0.5613  0.4108  1.3585
  142OSM   C14S15491   5.379   2.402   3.751  0.1432 -0.2222 -0.0253
  142OSM   H14S15492   5.355   2.293   3.755  2.1465 -0.6712  2.1596
  142OSM   H14T15493   5.291   2.457   3.789 -0.0953 -1.7606  1.8513
  142OSM   C15S15494   5.485   2.427   3.860 -0.3639  0.2201 -0.1505
  142OSM   H15S15495   5.530   2.525   3.836 -1.5200  0.7310 -0.2704
  142OSM   H15T15496   5.562   2.348   3.845  0.9048  1.5218 -0.7786
  142OSM   C16S15497   5.434   2.432   4.007  0.1964 -0.5490  0.4458
  142OSM   H16S15498   5.396   2.331   4.033 -0.8255 -0.9559 -2.2878
  142OSM   H16T15499   5.347   2.501   4.002 -0.6527 -1.6231  0.0697
  142OSM   C17S15500   5.530   2.514   4.094  0.6845 -0.4296 -0.3150
  142OSM   H17S15501   5.586   2.588   4.033 -0.2552  1.0711  0.5620
  142OSM   H17T15502   5.600   2.448   4.149  0.1151 -0.4088  0.4573
  142OSM   C18S15503   5.454   2.594   4.204 -0.1005  0.3774 -0.9342
  142OSM   H18S15504   5.397   2.673   4.150 -0.0904 -1.0013 -3.0687
  142OSM   H18T15505   5.526   2.639   4.276  0.8039  0.7325 -2.0263
  142OSM   H18U15506   5.373   2.538   4.254  0.6084 -0.7110 -0.9850
  142OSM    C1F15507   5.777   2.572   2.598 -0.0747  0.1298  0.6241
  142OSM     OF15508   5.886   2.605   2.550  0.3613  0.4843  0.4311
  142OSM    C2F15509   5.757   2.444   2.666  0.0523 -0.0734 -0.4685
  142OSM    H2F15510   5.814   2.357   2.628  2.0638  0.3287  1.3901
  142OSM    H2G15511   5.648   2.427   2.653 -0.1984 -0.0962  1.3846
  142OSM    C3F15512   5.779   2.465   2.815  0.3564  0.6762  0.1764
  142OSM    H3F15513   5.718   2.551   2.851  0.0532  0.5366 -0.0046
  142OSM    H3G15514   5.885   2.497   2.824 -0.0298  2.2683 -0.5727
  142OSM    C4F15515   5.758   2.338   2.897 -0.3465 -0.4101  0.2201
  142OSM    H4F15516   5.846   2.277   2.865  2.1740  3.0029  0.0520
  142OSM    H4G15517   5.660   2.293   2.869 -0.6422 -0.7086  1.6924
  142OSM    C5F15518   5.767   2.358   3.056  0.2379  0.6506  0.2893
  142OSM    H5F15519   5.698   2.441   3.083  0.6459  0.4119  2.1991
  142OSM    H5G15520   5.869   2.395   3.079 -0.2694  1.8430  0.7234
  142OSM    C6F15521   5.730   2.224   3.133  0.0096 -1.0810  0.6268
  142OSM    H6F15522   5.782   2.135   3.092 -2.6743 -2.4231 -0.0871
  142OSM    H6G15523   5.623   2.209   3.106 -0.2134  1.5370 -0.2049
  142OSM    C7F15524   5.748   2.238   3.287  0.4281  0.2119  0.7711
  142OSM    H7F15525   5.726   2.343   3.315  0.2120  1.3641 -3.1384
  142OSM    H7G15526   5.857   2.237   3.310  0.2611  0.8890  1.6446
  142OSM    C8F15527   5.670   2.126   3.359 -0.3579 -0.1847  0.2785
  142OSM    H8F15528   5.567   2.118   3.320  0.4144 -0.1933 -1.8837
  142OSM    H8G15529   5.658   2.160   3.464  3.0566 -1.4534  1.2108
  142OSM    C9F15530   5.748   1.994   3.364  0.0609 -0.4605 -0.2469
  142OSM    H9F15531   5.726   1.932   3.276  0.7006 -2.1364  0.7386
  142OSM   C10F15532   5.810   1.944   3.468  0.0937 -0.0434  0.0187
  142OSM   H10F15533   5.845   1.839   3.467  0.3634  0.0135  1.4065
  142OSM   C11F15534   5.829   2.007   3.601  0.0492 -0.8462  0.2860
  142OSM   H11F15535   5.764   2.095   3.614  1.5266  0.4463 -0.6898
  142OSM   H11G15536   5.932   2.040   3.628 -0.0720 -0.7655  0.6599
  142OSM   C12F15537   5.794   1.906   3.709  0.5174  0.1085 -0.0237
  142OSM   H12F15538   5.861   1.817   3.702  0.5055  0.1381 -0.5828
  142OSM   H12G15539   5.694   1.864   3.686 -1.0163  3.5410 -0.2440
  142OSM   C13F15540   5.802   1.957   3.846 -0.3455 -0.0794 -0.0505
  142OSM   H13F15541   5.730   2.039   3.867 -1.3494 -1.2807  1.4390
  142OSM   H13G15542   5.905   1.999   3.847 -0.0950 -0.6572 -0.5227
  142OSM   C14F15543   5.798   1.849   3.947 -0.9235  0.8638 -0.0803
  142OSM   H14F15544   5.866   1.769   3.913  0.1880  2.1690 -1.0345
  142OSM   H14G15545   5.694   1.810   3.947 -1.0994  1.3101  0.7692
  142OSM   C15F15546   5.858   1.882   4.085  0.3724 -0.5372  0.2800
  142OSM   H15F15547   5.801   1.970   4.123  0.7973 -0.7341  1.4187
  142OSM   H15G15548   5.965   1.900   4.063 -0.2062  0.2026 -2.2369
  142OSM   C16F15549   5.850   1.774   4.195  0.0125  0.0525 -0.3386
  142OSM   H16F15550   5.927   1.697   4.174 -0.2535 -0.3780  0.2468
  142OSM   H16G15551   5.750   1.725   4.189 -0.3076  0.4336  1.3991
  142OSM   C17F15552   5.877   1.835   4.332  0.4961  0.4901 -0.1618
  142OSM   H17F15553   5.889   1.755   4.408 -0.3572  2.2406  1.9450
  142OSM   H17G15554   5.784   1.883   4.370  0.3195 -0.9625  1.3218
  142OSM   C18F15555   5.994   1.924   4.334 -0.4060 -0.2579 -0.2747
  142OSM   H18F15556   5.981   2.020   4.279  1.6373  1.0476  1.3535
  142OSM   H18G15557   6.088   1.874   4.305  1.6427  2.7733  0.6326
  142OSM   H18H15558   6.023   1.953   4.437 -2.3944 -0.9978  0.5395
  143OSM      N15559   4.954   1.732   2.084 -0.0604 -0.0692 -0.1337
  143OSM    C1515560   5.015   1.840   1.992  0.6559 -0.1147 -0.4934
  143OSM   H15A15561   5.118   1.817   1.969  0.2204 -1.1025 -1.5287
  143OSM   H15B15562   5.013   1.937   2.039 -0.0246 -0.1524 -0.4254
  143OSM   H15C15563   4.963   1.849   1.898 -0.5257  0.3605  0.1724
  143OSM    C1415564   4.809   1.740   2.073  0.0928  0.1313 -0.6955
  143OSM   H14A15565   4.762   1.653   2.117 -0.9700  0.3036 -1.4311
  143OSM   H14B15566   4.779   1.730   1.970  0.2218 -0.1892 -0.7040
  143OSM   H14C15567   4.767   1.833   2.107  1.2675  0.2774  0.4109
  143OSM    C1315568   4.993   1.594   2.034  0.0401 -0.4453 -0.0030
  143OSM   H13A15569   4.974   1.579   1.929  0.5885 -0.7709 -0.0597
  143OSM   H13B15570   4.963   1.507   2.091  1.6036  0.4251  2.3191
  143OSM   H13C15571   5.099   1.597   2.056 -0.1919  1.9329  1.1386
  143OSM    C1215572   5.012   1.748   2.225  0.0592  0.0431 -0.4877
  143OSM   H12A15573   5.007   1.853   2.251 -2.0278  0.1373 -1.0145
  143OSM   H12B15574   5.116   1.721   2.231  0.1049  0.1189 -0.9167
  143OSM    C1115575   4.964   1.652   2.332  0.6154  0.0001 -0.1081
  143OSM   H11A15576   4.853   1.663   2.343  0.0162  0.7414 -4.7404
  143OSM   H11B15577   5.023   1.682   2.421  0.9007  3.5276 -1.3411
  143OSM      P15578   4.961   1.402   2.389  0.3688 -0.0022  0.1717
  143OSM    O1315579   4.814   1.393   2.369  0.1200 -0.1427 -0.7157
  143OSM    O1415580   5.046   1.282   2.348  0.0237 -0.6248 -0.5651
  143OSM    O1115581   5.009   1.451   2.537  1.3445  0.5204 -0.2252
  143OSM    O1215582   5.007   1.524   2.300  0.7097  0.1851  0.0900
  143OSM    C1S15583   4.922   1.408   2.647 -0.0650 -0.8897  0.3729
  143OSM    H1S15584   4.862   1.318   2.623  0.3844 -1.0638 -0.1187
  143OSM    H1T15585   4.847   1.487   2.666 -0.0426 -1.2837  2.2825
  143OSM     NF15586   4.912   1.335   2.875 -0.0448  0.2274 -0.1255
  143OSM    HNF15587   4.868   1.402   2.934  2.1844  2.9152 -1.2510
  143OSM    C2S15588   5.002   1.391   2.775  0.1311 -0.5821  0.3727
  143OSM    H2S15589   5.090   1.325   2.758  0.1648 -0.4694  0.0883
  143OSM    C3S15590   5.062   1.530   2.812 -0.6327  0.0148  0.3006
  143OSM    H3S15591   4.978   1.593   2.848  0.0320  0.9171  0.2921
  143OSM     O315592   5.101   1.618   2.701 -0.2390 -0.6746 -0.0910
  143OSM    HO315593   5.062   1.576   2.623  2.5614 -0.8514 -1.5529
  143OSM    C4S15594   5.165   1.526   2.922  0.4824 -0.7442 -0.3567
  143OSM    H4S15595   5.123   1.526   3.023  1.0786 -2.3536 -0.0850
  143OSM    C5S15596   5.300   1.505   2.902 -0.5178 -0.7681  0.5615
  143OSM    H5S15597   5.328   1.488   2.797  1.4531  3.6568  0.1403
  143OSM    C6S15598   5.414   1.486   3.000  0.2853  0.4331  0.1626
  143OSM    H6S15599   5.473   1.580   2.994 -0.4646  0.8855 -0.2656
  143OSM    H6T15600   5.474   1.402   2.960 -0.3189  0.3500 -0.5784
  143OSM    C7S15601   5.368   1.470   3.150  0.1445 -0.0612  0.5503
  143OSM    H7S15602   5.298   1.388   3.177  1.7127 -1.6651 -0.0814
  143OSM    H7T15603   5.317   1.562   3.185 -1.2505  0.3634 -2.3348
  143OSM    C8S15604   5.487   1.442   3.238  0.1373  0.2999  0.2055
  143OSM    H8S15605   5.564   1.519   3.217  0.0584 -0.2131 -2.1713
  143OSM    H8T15606   5.533   1.341   3.238  0.1863  0.3106  0.9494
  143OSM    C9S15607   5.455   1.450   3.387  0.6719 -0.4301 -0.3734
  143OSM    H9S15608   5.383   1.372   3.419 -0.0680  1.1156  2.0376
  143OSM    H9T15609   5.397   1.544   3.401 -3.2405 -2.9740  2.6673
  143OSM   C10S15610   5.574   1.454   3.490 -0.4102 -0.5284  0.1596
  143OSM   H10S15611   5.640   1.538   3.462 -0.3973 -0.4691  0.3625
  143OSM   H10T15612   5.627   1.357   3.489 -1.9375 -1.3993  0.3798
  143OSM   C11S15613   5.515   1.487   3.630 -0.2186 -0.2007 -0.2322
  143OSM   H11S15614   5.439   1.412   3.660 -0.2661  0.3097  0.9771
  143OSM   H11T15615   5.466   1.586   3.640 -0.6401 -0.2546 -1.5519
  143OSM   C12S15616   5.625   1.485   3.737 -0.0971 -0.4447  0.3024
  143OSM   H12S15617   5.700   1.559   3.701  0.6385 -1.3400 -0.0298
  143OSM   H12T15618   5.669   1.385   3.721 -0.7605 -0.3752 -2.6740
  143OSM   C13S15619   5.577   1.534   3.872  0.1591  0.0888 -0.3126
  143OSM   H13S15620   5.521   1.629   3.871 -1.1204 -0.6417 -1.2783
  143OSM   H13T15621   5.670   1.550   3.929 -0.9382  0.9441  1.2957
  143OSM   C14S15622   5.488   1.433   3.944  0.2848 -0.2064  0.1320
  143OSM   H14S15623   5.537   1.335   3.966  0.7108  0.3728  1.9609
  143OSM   H14T15624   5.400   1.407   3.882 -0.6378  1.5238  0.6522
  143OSM   C15S15625   5.427   1.488   4.080 -1.3599  0.5399  0.1950
  143OSM   H15S15626   5.343   1.423   4.110 -0.9825  0.1688  0.4519
  143OSM   H15T15627   5.380   1.587   4.059 -1.4157  0.4969  0.1194
  143OSM   C16S15628   5.535   1.479   4.193  0.6948  0.0915  0.3611
  143OSM   H16S15629   5.630   1.516   4.150 -1.7472  4.2989 -2.0904
  143OSM   H16T15630   5.556   1.370   4.204 -0.3278 -0.2047 -0.4234
  143OSM   C17S15631   5.501   1.560   4.320 -0.1022  0.6697  0.3748
  143OSM   H17S15632   5.399   1.537   4.357 -1.0827  0.8684 -2.0508
  143OSM   H17T15633   5.503   1.669   4.296  0.0230  0.9005  1.3651
  143OSM   C18S15634   5.601   1.524   4.435  0.0949 -0.3860  0.0547
  143OSM   H18S15635   5.618   1.415   4.448 -0.3951 -0.2527  2.1003
  143OSM   H18T15636   5.562   1.569   4.529  0.2552 -0.1095 -0.0117
  143OSM   H18U15637   5.701   1.568   4.417 -0.4690  1.0654  0.3284
  143OSM    C1F15638   4.882   1.209   2.876 -0.1791  0.7935 -0.2232
  143OSM     OF15639   4.924   1.139   2.790  0.0060  0.9810 -0.0404
  143OSM    C2F15640   4.792   1.163   2.984  0.2868 -0.8373  0.0947
  143OSM    H2F15641   4.698   1.220   2.972  1.6439  1.2573 -1.2328
  143OSM    H2G15642   4.836   1.182   3.084  1.3510  0.0148 -0.5254
  143OSM    C3F15643   4.743   1.015   2.974 -0.1848 -0.0155  0.3156
  143OSM    H3F15644   4.823   0.943   2.946 -1.1814 -1.9965  2.2238
  143OSM    H3G15645   4.677   0.999   2.886 -3.4212  2.6550  2.0115
  143OSM    C4F15646   4.666   0.964   3.094 -0.8309  0.6663 -0.0437
  143OSM    H4F15647   4.620   0.872   3.052 -0.8099  0.8319 -0.4383
  143OSM    H4G15648   4.596   1.041   3.132  0.3084  0.6712  2.2444
  143OSM    C5F15649   4.755   0.921   3.216 -0.2484  0.2236  0.1832
  143OSM    H5F15650   4.831   1.000   3.235 -1.8285  2.0874 -0.8719
  143OSM    H5G15651   4.820   0.835   3.188  0.0313  0.2541  0.7317
  143OSM    C6F15652   4.687   0.900   3.348 -0.0357 -0.3095 -0.1982
  143OSM    H6F15653   4.600   0.832   3.342 -0.0336 -0.3561  0.2861
  143OSM    H6G15654   4.636   0.994   3.379  0.9495  0.3250 -0.4604
  143OSM    C7F15655   4.782   0.854   3.464 -0.1105  0.0939  0.0413
  143OSM    H7F15656   4.869   0.923   3.470  0.3350 -0.3842 -0.7568
  143OSM    H7G15657   4.820   0.751   3.444 -1.4935 -0.6825  1.1883
  143OSM    C8F15658   4.704   0.836   3.598  0.3863  0.3108 -0.0486
  143OSM    H8F15659   4.618   0.776   3.562 -0.5348  0.6596  1.4856
  143OSM    H8G15660   4.657   0.933   3.625  0.2033  0.3234 -0.4053
  143OSM    C9F15661   4.773   0.771   3.716  0.7211 -0.0880  0.7231
  143OSM    H9F15662   4.868   0.819   3.744  1.5809 -0.2823 -1.6285
  143OSM   C10F15663   4.747   0.649   3.758 -0.0699 -0.0349 -0.6760
  143OSM   H10F15664   4.800   0.609   3.845  0.1256  0.4742 -0.5606
  143OSM   C11F15665   4.632   0.562   3.714 -0.1591  0.5506 -0.0474
  143OSM   H11F15666   4.671   0.459   3.705 -0.8046  0.4091 -1.4535
  143OSM   H11G15667   4.583   0.579   3.616  0.7991  3.0444 -0.1642
  143OSM   C12F15668   4.512   0.561   3.813  0.0796 -0.6132 -0.5215
  143OSM   H12F15669   4.433   0.503   3.762 -0.0293 -0.0485 -1.0151
  143OSM   H12G15670   4.459   0.659   3.815 -0.1800 -0.6660 -2.5454
  143OSM   C13F15671   4.541   0.487   3.945 -0.5364  0.6767  0.0159
  143OSM   H13F15672   4.627   0.547   3.981  0.9438 -0.1380 -1.9598
  143OSM   H13G15673   4.566   0.383   3.917  3.0848  0.5371  2.9859
  143OSM   C14F15674   4.423   0.475   4.038  0.3968 -0.1679 -0.8745
  143OSM   H14F15675   4.335   0.421   3.995 -0.1741 -1.3792  1.6017
  143OSM   H14G15676   4.380   0.575   4.060 -1.3326 -0.9700 -0.3814
  143OSM   C15F15677   4.465   0.423   4.183 -0.2549  0.2816 -0.2322
  143OSM   H15F15678   4.552   0.486   4.214 -1.8900  2.1414  0.8593
  143OSM   H15G15679   4.484   0.313   4.180  0.6829  0.4480 -0.8012
  143OSM   C16F15680   4.350   0.440   4.289  0.5761 -0.9347  0.4830
  143OSM   H16F15681   4.316   0.545   4.278  0.8787 -0.7687  1.1195
  143OSM   H16G15682   4.394   0.409   4.386  4.2716 -3.3463 -1.7157
  143OSM   C17F15683   4.232   0.345   4.260  0.2991  0.2873  0.0947
  143OSM   H17F15684   4.266   0.241   4.241  1.0527 -0.6356  5.0302
  143OSM   H17G15685   4.187   0.376   4.163  0.3099  0.4119  0.1288
  143OSM   C18F15686   4.125   0.341   4.369  0.2635  0.5378  0.0451
  143OSM   H18F15687   4.163   0.309   4.468  0.5867  0.0432 -0.2360
  143OSM   H18G15688   4.036   0.282   4.338 -2.4581  3.9018  0.8422
  143OSM   H18H15689   4.074   0.436   4.398 -0.6397  0.0741  0.0113
  144OSM      N15690   4.693   1.081   2.085 -0.2917  0.5552 -0.1252
  144OSM    C1515691   4.810   1.116   2.173  0.1893 -0.1102  0.0757
  144OSM   H15A15692   4.779   1.204   2.227  0.4296  0.6456 -0.9949
  144OSM   H15B15693   4.904   1.133   2.122 -0.8640  1.4522 -1.4645
  144OSM   H15C15694   4.824   1.040   2.249 -1.6245 -0.6866 -0.1312
  144OSM    C1415695   4.699   1.181   1.973 -0.5745 -0.4783 -0.2965
  144OSM   H14A15696   4.798   1.177   1.929 -0.8541 -2.4365 -0.8167
  144OSM   H14B15697   4.707   1.280   2.016  1.6018 -1.4981  1.8960
  144OSM   H14C15698   4.616   1.174   1.905 -0.6578 -1.5970 -0.0892
  144OSM    C1315699   4.720   0.939   2.038 -0.3264 -0.4715  0.0718
  144OSM   H13A15700   4.813   0.937   1.984 -1.2271  1.4015 -1.7182
  144OSM   H13B15701   4.652   0.898   1.965  1.6622  0.3711 -2.3730
  144OSM   H13C15702   4.718   0.871   2.122 -2.6893 -0.2319  0.2959
  144OSM    C1215703   4.563   1.081   2.160  0.1136 -0.4385  0.5858
  144OSM   H12A15704   4.479   1.078   2.091 -0.1541 -0.9840  0.9283
  144OSM   H12B15705   4.557   1.179   2.205 -3.4066 -0.3665  0.2933
  144OSM    C1115706   4.553   0.985   2.279 -0.1588  0.0880  0.1077
  144OSM   H11A15707   4.462   1.015   2.336 -0.8484  0.8256 -1.3493
  144OSM   H11B15708   4.644   0.993   2.342 -1.9743 -0.2296  2.9665
  144OSM      P15709   4.387   0.789   2.258  0.4183 -0.1139  0.1090
  144OSM    O1315710   4.290   0.878   2.194  0.2612 -1.0557  0.3522
  144OSM    O1415711   4.379   0.656   2.201 -0.5120  0.2735  0.8401
  144OSM    O1115712   4.345   0.777   2.413 -0.0641  0.4802  0.1697
  144OSM    O1215713   4.537   0.848   2.251 -0.2890  0.5374  0.6035
  144OSM    C1S15714   4.416   0.715   2.518 -0.1302  0.1316  1.0771
  144OSM    H1S15715   4.519   0.689   2.484 -1.1820 -0.0916 -2.2395
  144OSM    H1T15716   4.372   0.621   2.557  0.9063 -0.4699  0.8341
  144OSM     NF15717   4.518   0.735   2.737 -0.4891 -0.7149  0.0778
  144OSM    HNF15718   4.481   0.700   2.823  0.1692 -2.2845 -0.2309
  144OSM    C2S15719   4.439   0.809   2.641  0.2859 -0.7917 -0.0898
  144OSM    H2S15720   4.486   0.904   2.607 -1.1714 -0.7704 -2.2092
  144OSM    C3S15721   4.299   0.840   2.705  0.6281 -0.0880  0.1932
  144OSM    H3S15722   4.253   0.741   2.729  1.2490 -1.2797 -3.0118
  144OSM     O315723   4.213   0.908   2.618  0.8661  0.4470 -0.2949
  144OSM    HO315724   4.245   0.891   2.530 -0.6788 -1.9030 -0.5066
  144OSM    C4S15725   4.319   0.922   2.829  0.4626 -0.6922  0.1516
  144OSM    H4S15726   4.343   0.864   2.919  3.5079 -0.8633 -0.6759
  144OSM    C5S15727   4.337   1.057   2.843 -0.0004 -0.7321  0.0588
  144OSM    H5S15728   4.331   1.126   2.757  1.1436  1.5871  1.7195
  144OSM    C6S15729   4.351   1.125   2.977  0.1823  0.2282  0.3061
  144OSM    H6S15730   4.301   1.223   2.984  1.1354  0.8797 -1.4320
  144OSM    H6T15731   4.460   1.140   2.991  0.4235 -0.6155 -0.5062
  144OSM    C7S15732   4.301   1.043   3.101  0.4995 -0.2075 -1.0044
  144OSM    H7S15733   4.357   0.948   3.115  0.6885 -0.1134 -1.1190
  144OSM    H7T15734   4.197   1.010   3.082  0.1689  1.4304 -2.2238
  144OSM    C8S15735   4.326   1.121   3.228  0.3296 -0.5380  0.4218
  144OSM    H8S15736   4.238   1.186   3.246 -0.8308 -2.2421  1.2071
  144OSM    H8T15737   4.416   1.185   3.218 -1.3328  1.6019 -3.0695
  144OSM    C9S15738   4.316   1.030   3.359 -1.0342 -0.4234  0.6311
  144OSM    H9S15739   4.390   0.948   3.350 -0.6921 -0.2142  1.4428
  144OSM    H9T15740   4.215   0.985   3.365 -2.0252  1.2803 -1.7713
  144OSM   C10S15741   4.349   1.122   3.481 -0.1925  0.4049 -0.2353
  144OSM   H10S15742   4.261   1.190   3.484 -0.4155  0.1440 -0.7650
  144OSM   H10T15743   4.443   1.181   3.479 -0.3870  0.7327 -2.5181
  144OSM   C11S15744   4.351   1.033   3.607  0.5870  0.1024  0.0423
  144OSM   H11S15745   4.364   1.102   3.693  2.6515 -0.1276 -0.0376
  144OSM   H11T15746   4.445   0.978   3.587  0.5796  0.5305 -1.2622
  144OSM   C12S15747   4.231   0.946   3.645 -1.0194  0.0342 -0.2359
  144OSM   H12S15748   4.226   0.848   3.592 -0.1192 -0.8046  1.1833
  144OSM   H12T15749   4.135   0.998   3.626 -0.0573  1.5902 -1.0302
  144OSM   C13S15750   4.252   0.902   3.788 -0.0462  0.3170 -0.8069
  144OSM   H13S15751   4.275   0.979   3.864  0.7388 -1.4868  0.8523
  144OSM   H13T15752   4.342   0.837   3.794  0.4479  1.1211  1.0453
  144OSM   C14S15753   4.117   0.833   3.835 -0.6311  0.3699  0.4906
  144OSM   H14S15754   4.085   0.756   3.762 -0.0701  2.1036 -1.6892
  144OSM   H14T15755   4.039   0.912   3.828  0.2203  1.2490  0.8042
  144OSM   C15S15756   4.127   0.786   3.977  0.0647 -0.0449 -0.9005
  144OSM   H15S15757   4.189   0.848   4.046  0.0526 -1.8292  0.8053
  144OSM   H15T15758   4.184   0.692   3.963 -0.8390 -0.4185 -2.2179
  144OSM   C16S15759   3.995   0.763   4.048 -0.8857  0.9077 -0.0495
  144OSM   H16S15760   3.927   0.709   3.978 -0.1076  0.9639 -0.8703
  144OSM   H16T15761   3.947   0.854   4.087 -2.5811  0.2466 -0.5101
  144OSM   C17S15762   4.010   0.666   4.169  0.2842  0.1525  0.5327
  144OSM   H17S15763   4.087   0.702   4.241  0.1073 -0.0646  0.8296
  144OSM   H17T15764   4.035   0.566   4.127 -1.8075 -0.9390  1.7243
  144OSM   C18S15765   3.882   0.650   4.246 -0.3379  0.7294 -0.0075
  144OSM   H18S15766   3.793   0.637   4.181  1.3612 -1.6932 -2.0754
  144OSM   H18T15767   3.865   0.740   4.308 -0.3227  0.7887 -0.0893
  144OSM   H18U15768   3.887   0.556   4.304  0.6273 -0.9944 -2.6682
  144OSM    C1F15769   4.651   0.700   2.711  0.1146 -0.1585  0.3164
  144OSM     OF15770   4.713   0.759   2.624 -0.6909  0.2314  0.0362
  144OSM    C2F15771   4.713   0.585   2.785  0.7503  0.5146  0.2205
  144OSM    H2F15772   4.784   0.529   2.720  1.1165  0.7359  0.4259
  144OSM    H2G15773   4.628   0.517   2.807  0.1519  1.3297  0.4804
  144OSM    C3F15774   4.775   0.619   2.927 -0.4167 -0.1942  0.2132
  144OSM    H3F15775   4.696   0.637   3.003 -0.3870 -2.0280  0.7076
  144OSM    H3G15776   4.837   0.712   2.930  1.2514 -1.2808  1.6577
  144OSM    C4F15777   4.856   0.496   2.972  0.4822 -0.6316 -0.1342
  144OSM    H4F15778   4.930   0.474   2.893  2.1676 -0.0727  1.2270
  144OSM    H4G15779   4.789   0.408   2.976 -2.1138  1.2369  1.2352
  144OSM    C5F15780   4.913   0.520   3.111 -0.3161  0.5010 -0.4950
  144OSM    H5F15781   4.832   0.564   3.173  0.9226 -2.5072  3.7341
  144OSM    H5G15782   5.009   0.576   3.115  1.5372 -2.4463 -0.3544
  144OSM    C6F15783   4.961   0.388   3.182 -0.3265 -0.2964  0.2333
  144OSM    H6F15784   5.038   0.346   3.113 -0.4865 -0.0734 -0.0849
  144OSM    H6G15785   4.875   0.320   3.165 -2.1862  1.9755  0.2486
  144OSM    C7F15786   4.988   0.413   3.323 -0.3156  0.2748 -0.3986
  144OSM    H7F15787   5.049   0.504   3.342  1.4862 -1.2371  1.5144
  144OSM    H7G15788   5.045   0.328   3.366  1.2001  2.1413  1.5234
  144OSM    C8F15789   4.869   0.437   3.412 -0.0960  0.8251  0.2159
  144OSM    H8F15790   4.825   0.538   3.397 -3.6876 -0.7072 -0.5980
  144OSM    H8G15791   4.917   0.454   3.511  0.2835 -1.8632  0.5616
  144OSM    C9F15792   4.769   0.321   3.416  0.2437 -0.7517  0.1256
  144OSM    H9F15793   4.807   0.222   3.445  1.2424 -0.1217  1.0411
  144OSM   C10F15794   4.639   0.331   3.373  0.2206 -0.1297 -0.1933
  144OSM   H10F15795   4.578   0.239   3.379 -0.8521  0.5793  0.1460
  144OSM   C11F15796   4.562   0.454   3.319  0.1120 -0.2415 -0.3408
  144OSM   H11F15797   4.553   0.449   3.209  0.4634  0.9894 -0.4407
  144OSM   H11G15798   4.631   0.541   3.330  1.2850 -1.2567  0.7482
  144OSM   C12F15799   4.419   0.472   3.374  1.0055  0.6408  0.3245
  144OSM   H12F15800   4.365   0.556   3.325 -0.4883 -1.2989 -1.5671
  144OSM   H12G15801   4.429   0.503   3.480  2.5851 -1.2847  0.8084
  144OSM   C13F15802   4.310   0.364   3.355  0.0681 -0.1258 -0.1933
  144OSM   H13F15803   4.343   0.283   3.424  0.5773 -0.2840 -0.6142
  144OSM   H13G15804   4.302   0.323   3.252  1.5174  0.3345 -0.5107
  144OSM   C14F15805   4.169   0.408   3.403 -0.6079  0.1144 -0.0831
  144OSM   H14F15806   4.131   0.495   3.345 -0.4446 -0.3720 -0.9291
  144OSM   H14G15807   4.183   0.452   3.504  1.2886 -1.0098  0.1843
  144OSM   C15F15808   4.064   0.300   3.398  0.5446  0.5394  0.4904
  144OSM   H15F15809   4.101   0.221   3.467 -0.5618 -0.7950 -0.3888
  144OSM   H15G15810   4.053   0.278   3.290 -0.2915 -0.2348  0.7181
  144OSM   C16F15811   3.931   0.359   3.461 -0.5087  0.6782  1.0428
  144OSM   H16F15812   3.940   0.468   3.484  0.1363  0.3779  2.3390
  144OSM   H16G15813   3.903   0.296   3.548 -3.3508 -0.3591 -0.4977
  144OSM   C17F15814   3.815   0.343   3.359 -0.1801 -0.2534 -0.9486
  144OSM   H17F15815   3.728   0.339   3.427 -0.8626 -0.9033 -1.8440
  144OSM   H17G15816   3.815   0.249   3.301  0.4049 -0.9282  0.1096
  144OSM   C18F15817   3.791   0.461   3.265 -0.4414  0.3301  0.4490
  144OSM   H18F15818   3.754   0.557   3.308 -2.3357  1.7042 -3.7040
  144OSM   H18G15819   3.708   0.428   3.198 -0.1518 -1.7248  1.0540
  144OSM   H18H15820   3.883   0.489   3.209 -1.7314  1.3437 -1.2736
  145SAPE     N15821   5.033   1.499   6.745  0.4967 -0.3312 -0.0373
  145SAPE   HN115822   5.097   1.474   6.822 -0.4089  0.0079  0.8450
  145SAPE   HN215823   4.971   1.571   6.787 -1.4314 -0.0508 -3.0314
  145SAPE   HN315824   4.965   1.421   6.732  0.8325 -0.6094 -0.1450
  145SAPE   C1215825   5.098   1.559   6.623  0.4265  0.2873 -0.9348
  145SAPE  H12A15826   5.039   1.611   6.545  0.8849  0.8353 -0.9234
  145SAPE  H12B15827   5.144   1.473   6.569  1.6109  0.2153  0.1218
  145SAPE   C1115828   5.211   1.656   6.675 -0.3755  0.0714  0.2170
  145SAPE  H11A15829   5.167   1.757   6.692  0.9647  1.0820 -1.9595
  145SAPE  H11B15830   5.274   1.672   6.585 -2.8717  2.4449 -1.2823
  145SAPE     P15831   5.408   1.516   6.799 -0.1232  0.4169  0.1166
  145SAPE   O1315832   5.523   1.608   6.763 -0.2761 -0.2924  0.2189
  145SAPE   O1415833   5.421   1.441   6.926 -0.0833  0.8864 -0.1104
  145SAPE   O1215834   5.276   1.599   6.789 -1.0401 -0.2321 -0.2828
  145SAPE   O1115835   5.387   1.419   6.677 -0.3219 -0.1587 -0.3199
  145SAPE    C115836   5.465   1.299   6.675 -0.7608  0.3015 -0.4727
  145SAPE    HA15837   5.573   1.323   6.670 -0.9601  1.0608 -1.3874
  145SAPE    HB15838   5.469   1.255   6.777  1.2524  1.9231  0.2144
  145SAPE    C215839   5.422   1.199   6.561 -0.3161 -0.5174  0.5443
  145SAPE    HS15840   5.499   1.120   6.571 -0.6231 -0.6443  2.2900
  145SAPE   O2115841   5.427   1.263   6.429  0.4382  0.2802  0.8286
  145SAPE   C2115842   5.556   1.278   6.383  0.2734 -0.3468 -0.2420
  145SAPE   O2215843   5.654   1.226   6.436  0.0193  0.7378  0.3174
  145SAPE   C2215844   5.568   1.357   6.253  0.3497 -0.2931 -0.3398
  145SAPE   H2R15845   5.643   1.314   6.184 -0.4957  0.1712 -1.5809
  145SAPE   H2S15846   5.474   1.352   6.194  1.3117 -0.9453 -1.8749
  145SAPE    C315847   5.281   1.140   6.576  0.1064 -0.3973 -0.2033
  145SAPE    HX15848   5.211   1.218   6.614 -0.3143  1.6789 -4.5906
  145SAPE    HY15849   5.271   1.051   6.642 -0.5161  0.3189  0.7134
  145SAPE   O3115850   5.217   1.102   6.453  0.2593  0.4039  0.1184
  145SAPE   C3115851   5.272   0.988   6.397  0.3867  0.5401 -0.2916
  145SAPE   O3215852   5.359   0.918   6.449 -0.1735 -0.1560 -0.0852
  145SAPE   C3215853   5.200   0.959   6.268 -1.1942 -0.5667  0.0951
  145SAPE   H2X15854   5.220   1.043   6.198  0.1532 -1.4228 -0.5954
  145SAPE   H2Y15855   5.095   0.968   6.301 -0.6402  0.7064  1.6015
  145SAPE   C2315856   5.606   1.501   6.283  0.2544  0.6640  0.6510
  145SAPE   H3R15857   5.655   1.551   6.197 -0.1961 -0.5833 -0.3763
  145SAPE   H3S15858   5.685   1.504   6.360  1.6454 -0.4821 -0.6726
  145SAPE   C2415859   5.476   1.582   6.323 -0.4085  0.3188  0.4882
  145SAPE   H4R15860   5.430   1.528   6.409  0.0354  0.1901  0.6493
  145SAPE   H4S15861   5.397   1.580   6.246  2.2809 -0.6593 -2.4597
  145SAPE   C2515862   5.509   1.724   6.365 -0.0661  0.4263  0.1726
  145SAPE   H5R15863   5.566   1.733   6.458  4.3835 -1.8577 -2.0484
  145SAPE   C2615864   5.476   1.839   6.301  0.0942 -0.5065 -0.1049
  145SAPE   H6R15865   5.519   1.932   6.341 -0.5479 -0.3601  0.2600
  145SAPE   C2715866   5.426   1.845   6.155 -0.5635 -0.0022 -0.7038
  145SAPE   H7R15867   5.362   1.934   6.137 -0.2601  0.1825 -0.8902
  145SAPE   H7S15868   5.348   1.771   6.126 -2.4010  1.5211  0.1513
  145SAPE   C2815869   5.542   1.859   6.056  0.0268  0.5658  0.3509
  145SAPE   H8R15870   5.619   1.935   6.075 -0.0370  0.4761  0.9580
  145SAPE   C2915871   5.570   1.771   5.959 -0.5017  0.1920 -0.6097
  145SAPE   H9R15872   5.654   1.790   5.891 -1.4622 -2.3066 -2.6638
  145SAPE  C21015873   5.482   1.659   5.912 -0.1304  0.0196  0.2832
  145SAPE  H10R15874   5.431   1.619   6.002  0.7492 -0.4286  0.5875
  145SAPE  H10S15875   5.546   1.581   5.866  1.2232  1.8826 -1.2055
  145SAPE  C21115876   5.384   1.700   5.804 -0.4158  0.2209  0.4682
  145SAPE  H11R15877   5.422   1.762   5.722 -0.7670 -1.5926 -1.1539
  145SAPE  C21215878   5.251   1.667   5.804  0.6500  0.1262  0.6478
  145SAPE  H12R15879   5.183   1.698   5.722  0.3500 -2.2446 -0.0642
  145SAPE  C21315880   5.185   1.583   5.910 -0.3027 -0.6322 -0.2602
  145SAPE  H13R15881   5.080   1.616   5.924  0.0743  0.7391 -0.5554
  145SAPE  H13S15882   5.237   1.607   6.006  0.9897 -0.9444 -0.8580
  145SAPE  C21415883   5.218   1.434   5.892 -0.0448  0.2953  0.0142
  145SAPE  H14R15884   5.317   1.419   5.846 -0.7152  1.7004 -2.0137
  145SAPE  C21515885   5.149   1.319   5.931  0.0287  0.0812 -0.1796
  145SAPE  H15R15886   5.203   1.227   5.906  1.7521  0.0618  3.0831
  145SAPE  C21615887   5.012   1.304   6.003  0.0443  0.3643  0.4324
  145SAPE  H16R15888   4.988   1.397   6.058 -0.2647 -0.4325  1.6656
  145SAPE  H16S15889   5.008   1.223   6.078 -1.8934  1.7900  1.9813
  145SAPE  C21715890   4.886   1.277   5.913 -0.0488 -0.4603  0.4644
  145SAPE  H17R15891   4.802   1.222   5.961 -1.9073  2.0832  0.3897
  145SAPE  H17S15892   4.927   1.216   5.831 -1.1629  0.0404 -0.4930
  145SAPE  C21815893   4.826   1.411   5.852 -0.1705 -0.2551 -0.4296
  145SAPE  H18R15894   4.913   1.477   5.834 -2.5665  3.1657 -0.4318
  145SAPE  H18S15895   4.761   1.464   5.925 -0.1305 -0.8315  0.0394
  145SAPE  C21915896   4.741   1.378   5.737  0.8027  0.1711  0.8512
  145SAPE  H19R15897   4.648   1.438   5.750 -2.0422 -3.9509  1.3523
  145SAPE  H19S15898   4.706   1.273   5.733  1.1512  0.0897 -0.2602
  145SAPE  C22015899   4.799   1.406   5.595 -0.1711 -0.0520 -0.4725
  145SAPE  H20R15900   4.736   1.356   5.520  1.2779 -0.7159 -1.2968
  145SAPE  H20S15901   4.906   1.374   5.590 -0.5180 -0.9948 -2.5716
  145SAPE  H20T15902   4.800   1.517   5.587  0.3538 -0.1407 -2.1619
  145SAPE   C3315903   5.239   0.821   6.211  0.1233  1.1089 -0.1647
  145SAPE   H3X15904   5.220   0.740   6.285 -4.0056  0.9568 -1.1265
  145SAPE   H3Y15905   5.347   0.830   6.185 -0.3255  0.1055 -2.6722
  145SAPE   C3415906   5.163   0.802   6.077  0.0209 -0.0525  0.2724
  145SAPE   H4X15907   5.156   0.889   6.008 -0.4678  0.1804  0.6116
  145SAPE   H4Y15908   5.061   0.762   6.099 -0.6773  0.5330 -1.6341
  145SAPE   C3515909   5.238   0.699   5.991 -0.2498 -0.2757 -0.2829
  145SAPE   H5X15910   5.245   0.603   6.046 -1.3694 -0.6608 -0.7811
  145SAPE   H5Y15911   5.343   0.732   5.974 -0.6638  1.4322  0.2983
  145SAPE   C3615912   5.170   0.659   5.851  0.0566  0.3758  0.7431
  145SAPE   H6X15913   5.210   0.563   5.812 -0.6415  1.0610 -1.8586
  145SAPE   H6Y15914   5.208   0.739   5.784 -1.3914  0.8078  0.3948
  145SAPE   C3715915   5.019   0.663   5.850 -0.3232  0.0620 -0.5359
  145SAPE   H7X15916   4.978   0.766   5.862  0.7438  0.4221  0.2645
  145SAPE   H7Y15917   4.986   0.597   5.933  1.6057 -0.9121 -0.4859
  145SAPE   C3815918   4.960   0.614   5.726  0.1649  0.5881  0.6492
  145SAPE   H8X15919   5.013   0.658   5.639  0.5091  0.0956  0.6083
  145SAPE   H8Y15920   4.852   0.642   5.726  0.4286  1.7499 -1.0893
  145SAPE   C3915921   4.960   0.465   5.692  0.2863 -0.0128  0.2972
  145SAPE   H9X15922   4.907   0.412   5.775  0.7249  0.2827  0.7713
  145SAPE   H9Y15923   5.066   0.432   5.693  0.2374 -0.1678  1.1079
  145SAPE  C31015924   4.877   0.437   5.563 -0.4132 -0.0510 -0.4451
  145SAPE  H10X15925   4.803   0.520   5.569  2.0857  2.2315  2.2952
  145SAPE  H10Y15926   4.832   0.336   5.564  0.7067 -0.5793 -1.0015
  145SAPE  C31115927   4.964   0.458   5.435  0.3021 -0.5210  0.0690
  145SAPE  H11X15928   5.000   0.356   5.410  0.4756 -0.8889  1.6654
  145SAPE  H11Y15929   5.042   0.535   5.450 -1.3701  1.4064 -0.6269
  145SAPE  C31215930   4.881   0.493   5.312 -0.3054  0.1095  0.3047
  145SAPE  H12X15931   4.779   0.450   5.298  1.3601 -3.6411 -1.8097
  145SAPE  H12Y15932   4.938   0.472   5.220 -1.0800  1.0200 -0.3975
  145SAPE  C31315933   4.865   0.650   5.295 -0.5095  0.0030 -0.0127
  145SAPE  H13X15934   4.965   0.692   5.273 -0.0022 -1.4204 -0.5691
  145SAPE  H13Y15935   4.827   0.702   5.385 -2.0561 -1.1938  0.0891
  145SAPE  C31415936   4.770   0.681   5.177 -0.3039  0.2221 -0.2660
  145SAPE  H14X15937   4.815   0.633   5.087 -0.2126  0.5965 -0.4180
  145SAPE  H14Y15938   4.767   0.790   5.160 -1.1660 -0.0107 -1.6935
  145SAPE  C31515939   4.623   0.632   5.189  0.7643 -0.7519  0.2721
  145SAPE  H15X15940   4.581   0.681   5.279 -0.2977  0.4149 -0.8212
  145SAPE  H15Y15941   4.632   0.523   5.210  1.5004 -1.2859 -2.3329
  145SAPE  C31615942   4.530   0.648   5.064  0.4363 -0.3361 -0.3133
  145SAPE  H16X15943   4.536   0.749   5.018  0.3291 -0.2379 -0.1097
  145SAPE  H16Y15944   4.424   0.641   5.097 -0.2163 -0.0823 -2.2396
  145SAPE  C31715945   4.564   0.550   4.954  0.0944  0.5765 -0.3251
  145SAPE  H17X15946   4.567   0.451   5.003 -0.2854  1.2088  1.0207
  145SAPE  H17Y15947   4.661   0.571   4.903  0.7335 -0.0791  0.5817
  145SAPE  C31815948   4.460   0.536   4.845 -0.0086 -0.4190 -0.0073
  145SAPE  H18X15949   4.476   0.440   4.790  1.1556 -0.2089 -0.0620
  145SAPE  H18Y15950   4.463   0.611   4.763  2.3599 -0.6995 -0.2616
  145SAPE  H18Z15951   4.358   0.543   4.887  0.3086 -1.7232  1.0505
  146SAPE     N15952   6.309   2.973   6.870 -0.5409  0.0096  0.2948
  146SAPE   HN115953   6.307   3.060   6.927 -2.3350  0.3640 -0.2598
  146SAPE   HN215954   6.213   2.945   6.843 -0.3258 -1.0777  0.6066
  146SAPE   HN315955   6.339   2.890   6.925  0.5686  1.2593  1.6900
  146SAPE   C1215956   6.404   2.990   6.753 -0.2806 -0.8735 -0.5239
  146SAPE  H12A15957   6.494   3.044   6.792  0.3697 -1.1567 -1.5955
  146SAPE  H12B15958   6.349   3.046   6.674 -0.6381 -1.6368 -0.8171
  146SAPE   C1115959   6.450   2.858   6.689  0.1377  0.0223 -0.3459
  146SAPE  H11A15960   6.522   2.871   6.605  1.7173 -0.3160  0.9045
  146SAPE  H11B15961   6.354   2.813   6.657 -0.0236 -1.6036  2.0999
  146SAPE     P15962   6.651   2.797   6.844  0.2520 -0.0375  0.0815
  146SAPE   O1315963   6.659   2.912   6.932  0.3333  0.7906 -0.1954
  146SAPE   O1415964   6.700   2.668   6.896  0.5965 -0.5038  0.7491
  146SAPE   O1215965   6.503   2.777   6.791 -0.1011 -0.0563  0.1079
  146SAPE   O1115966   6.733   2.825   6.713 -0.1004 -0.3490 -0.1715
  146SAPE    C115967   6.769   2.958   6.680 -1.0616  0.3252 -0.8132
  146SAPE    HA15968   6.688   3.010   6.624 -0.9123  1.0688 -0.3606
  146SAPE    HB15969   6.794   3.014   6.773 -1.3226 -0.1273 -0.4678
  146SAPE    C215970   6.884   2.950   6.579 -1.0270 -0.4561  0.2023
  146SAPE    HS15971   6.901   3.051   6.536 -0.3206 -1.0638 -1.0085
  146SAPE   O2115972   6.865   2.851   6.483  0.2786 -0.2875  0.3905
  146SAPE   C2115973   6.775   2.877   6.379 -0.0886  0.9714 -0.0275
  146SAPE   O2215974   6.715   2.982   6.369 -0.3697  0.0086  0.3320
  146SAPE   C2215975   6.785   2.770   6.278  0.0356 -0.0158  0.0350
  146SAPE   H2R15976   6.753   2.675   6.325  3.7281 -0.7423  1.3701
  146SAPE   H2S15977   6.716   2.803   6.197 -0.4291  0.7615  0.7251
  146SAPE    C315978   7.024   2.925   6.648 -0.1484  0.1770  0.3153
  146SAPE    HX15979   7.045   2.817   6.632  0.8516  0.2697  0.9117
  146SAPE    HY15980   7.006   2.940   6.756  0.3914  2.3180  0.1423
  146SAPE   O3115981   7.133   3.012   6.607  0.2565 -0.1606  0.1570
  146SAPE   C3115982   7.215   2.956   6.521 -0.2926  0.1811 -0.2681
  146SAPE   O3215983   7.202   2.851   6.466  0.1202  0.2125  0.8377
  146SAPE   C3215984   7.328   3.061   6.490  0.3868 -0.0780  0.5856
  146SAPE   H2X15985   7.410   3.032   6.560  1.4784  1.3725 -0.0490
  146SAPE   H2Y15986   7.283   3.161   6.512  2.2930  1.4043 -1.7974
  146SAPE   C2315987   6.925   2.754   6.204  0.0606  0.3645 -0.2960
  146SAPE   H3R15988   6.910   2.687   6.117  2.0709  1.4043 -1.5318
  146SAPE   H3S15989   7.003   2.715   6.273 -1.9501 -2.2426  0.6507
  146SAPE   C2415990   6.977   2.883   6.143 -0.1979  0.0947  0.1458
  146SAPE   H4R15991   7.063   2.869   6.074  0.0464 -1.8878  0.7765
  146SAPE   H4S15992   7.011   2.948   6.227 -0.8127  1.0340 -0.3169
  146SAPE   C2515993   6.878   2.964   6.058  0.2787  0.0599  0.6372
  146SAPE   H5R15994   6.812   3.037   6.107 -1.6529  0.6980 -2.5824
  146SAPE   C2615995   6.862   2.962   5.924  0.1727  0.2284  0.3230
  146SAPE   H6R15996   6.801   3.043   5.881 -1.3746 -0.4634  1.1155
  146SAPE   C2715997   6.945   2.866   5.832  0.3028 -0.4408  0.3206
  146SAPE   H7R15998   6.888   2.828   5.744  1.2067 -0.8734 -0.0957
  146SAPE   H7S15999   6.982   2.774   5.884  0.6158 -0.0391  0.8147
  146SAPE   C2816000   7.058   2.951   5.769 -0.0209 -0.7488 -0.3036
  146SAPE   H8R16001   7.157   2.959   5.816  0.1645 -0.2562 -0.7659
  146SAPE   C2916002   7.047   3.013   5.645  0.0562 -0.1809 -0.9205
  146SAPE   H9R16003   7.139   3.055   5.600 -0.3981  0.6508 -1.0905
  146SAPE  C21016004   6.940   3.036   5.542 -0.3188  0.2779 -0.1439
  146SAPE  H10R16005   6.949   3.144   5.517 -0.3233  0.1732 -0.6074
  146SAPE  H10S16006   6.844   3.007   5.590  0.6003 -0.9235  1.0165
  146SAPE  C21116007   6.965   2.946   5.420 -0.3049  0.8965  0.0042
  146SAPE  H11R16008   6.962   2.836   5.427  0.2699  0.4614 -4.1793
  146SAPE  C21216009   7.015   2.991   5.302  0.3062 -0.2545  0.0439
  146SAPE  H12R16010   7.030   2.922   5.218 -0.5417  0.1775 -0.4779
  146SAPE  C21316011   7.028   3.135   5.256  0.2103  0.7109 -0.0507
  146SAPE  H13R16012   7.080   3.129   5.158 -1.7877  0.0516 -1.1317
  146SAPE  H13S16013   7.097   3.200   5.314  0.3939  0.3900  0.0974
  146SAPE  C21416014   6.886   3.186   5.234  0.1395  0.7299  0.1299
  146SAPE  H14R16015   6.802   3.120   5.207 -1.1715  3.0374 -1.7652
  146SAPE  C21516016   6.855   3.317   5.232  0.1754  0.1447 -0.4831
  146SAPE  H15R16017   6.753   3.343   5.200  0.0792 -1.2801 -1.4152
  146SAPE  C21616018   6.944   3.430   5.250 -0.2516 -0.3085 -0.1277
  146SAPE  H16R16019   6.960   3.464   5.145 -3.6533  0.5789 -0.4873
  146SAPE  H16S16020   7.036   3.395   5.302  0.3558  0.3492 -0.7267
  146SAPE  C21716021   6.896   3.552   5.335 -0.6389  0.4831  0.5372
  146SAPE  H17R16022   6.823   3.614   5.278 -0.5978  0.8233  0.8546
  146SAPE  H17S16023   6.977   3.625   5.355  1.3969 -1.8588  1.2602
  146SAPE  C21816024   6.829   3.503   5.461  0.1556  0.1890 -0.1662
  146SAPE  H18R16025   6.903   3.428   5.497  1.1631  0.0291 -2.3956
  146SAPE  H18S16026   6.735   3.452   5.432  0.7181 -0.0864 -1.6040
  146SAPE  C21916027   6.814   3.619   5.560 -1.1104 -0.3428 -0.0876
  146SAPE  H19R16028   6.737   3.693   5.530 -3.6651 -2.6471  0.3665
  146SAPE  H19S16029   6.913   3.670   5.562 -1.3621  0.1283  0.2542
  146SAPE  C22016030   6.789   3.564   5.695  0.4279  0.1628 -0.0962
  146SAPE  H20R16031   6.759   3.457   5.700 -0.4123  0.3946 -0.0717
  146SAPE  H20S16032   6.697   3.611   5.735  0.6393 -1.2449  2.1833
  146SAPE  H20T16033   6.872   3.564   5.769 -0.2722 -2.4242  0.7987
  146SAPE   C3316034   7.361   3.054   6.342 -0.1014 -0.6621 -0.6300
  146SAPE   H3X16035   7.272   3.031   6.280 -2.6093  2.3848  1.5213
  146SAPE   H3Y16036   7.432   2.969   6.333  1.9159  0.8431  0.2875
  146SAPE   C3416037   7.435   3.174   6.291  0.8965  0.0653 -0.4282
  146SAPE   H4X16038   7.515   3.207   6.361  0.1524 -0.1056  0.5272
  146SAPE   H4Y16039   7.361   3.252   6.263 -1.8694 -2.2921 -0.1821
  146SAPE   C3516040   7.518   3.140   6.161  0.8651  0.8275 -0.5609
  146SAPE   H5X16041   7.449   3.107   6.080 -1.1927  0.8610  1.0861
  146SAPE   H5Y16042   7.587   3.058   6.191  0.4537  0.4120 -0.7320
  146SAPE   C3616043   7.598   3.262   6.106  0.0698  0.2215  0.7736
  146SAPE   H6X16044   7.665   3.294   6.189  0.4227  0.1308  0.5248
  146SAPE   H6Y16045   7.538   3.344   6.061  1.7051 -0.5638 -3.2386
  146SAPE   C3716046   7.692   3.210   5.995 -0.6536  0.3416 -0.3776
  146SAPE   H7X16047   7.638   3.147   5.921  1.2334 -1.5143 -0.2665
  146SAPE   H7Y16048   7.765   3.146   6.049  0.1959  2.1612  0.7350
  146SAPE   C3816049   7.767   3.309   5.902  0.4611  0.1000 -0.8647
  146SAPE   H8X16050   7.869   3.275   5.873 -0.0112 -0.8210 -1.4879
  146SAPE   H8Y16051   7.780   3.402   5.961 -0.2900 -2.4509  3.7844
  146SAPE   C3916052   7.673   3.340   5.783  0.0848 -0.7719 -0.4774
  146SAPE   H9X16053   7.596   3.408   5.824  3.2199  2.9930 -0.2386
  146SAPE   H9Y16054   7.638   3.244   5.738 -0.5689 -1.9412  2.3546
  146SAPE  C31016055   7.753   3.434   5.692  0.3911 -0.7493 -0.0604
  146SAPE  H10X16056   7.854   3.390   5.682  1.5831  1.8700 -0.3095
  146SAPE  H10Y16057   7.775   3.529   5.745  0.4700 -0.9981  0.3586
  146SAPE  C31116058   7.688   3.450   5.561  0.5820  0.3969  0.3880
  146SAPE  H11X16059   7.597   3.513   5.574  0.2466 -0.0775  0.3815
  146SAPE  H11Y16060   7.660   3.348   5.525 -0.2253  0.1846  1.5539
  146SAPE  C31216061   7.789   3.513   5.455  0.1225 -0.3951  0.4188
  146SAPE  H12X16062   7.864   3.441   5.414 -1.5747 -1.6302 -0.6958
  146SAPE  H12Y16063   7.835   3.594   5.515 -1.7733  0.3992  0.8518
  146SAPE  C31316064   7.726   3.563   5.331  0.0794 -0.2120  0.1891
  146SAPE  H13X16065   7.651   3.633   5.373 -0.4107 -0.7537  0.2340
  146SAPE  H13Y16066   7.666   3.496   5.266 -1.2470  1.3226 -0.2412
  146SAPE  C31416067   7.822   3.646   5.237 -0.1191 -0.1450  0.4472
  146SAPE  H14X16068   7.907   3.579   5.211 -1.2285 -3.4817  4.2891
  146SAPE  H14Y16069   7.866   3.725   5.301  1.1971 -0.0627 -0.5254
  146SAPE  C31516070   7.751   3.723   5.126 -0.6977  0.0655 -0.6221
  146SAPE  H15X16071   7.681   3.789   5.181 -1.3056 -0.4311 -0.7840
  146SAPE  H15Y16072   7.690   3.658   5.059 -0.2754 -1.3793  0.3511
  146SAPE  C31616073   7.838   3.819   5.045  0.4296  0.3492  0.0803
  146SAPE  H16X16074   7.906   3.771   4.971  1.2765  0.6458  0.6568
  146SAPE  H16Y16075   7.905   3.867   5.119  1.6938  1.1790 -1.5322
  146SAPE  C31716076   7.759   3.922   4.964  0.7897 -0.6495 -1.2855
  146SAPE  H17X16077   7.674   3.866   4.919  0.6706 -0.5035 -1.2425
  146SAPE  H17Y16078   7.824   3.961   4.883 -1.3985  1.0008 -2.3748
  146SAPE  C31816079   7.705   4.033   5.060  0.1533  0.1369 -0.2706
  146SAPE  H18X16080   7.619   3.990   5.115 -0.9953 -0.4521 -2.4307
  146SAPE  H18Y16081   7.674   4.117   4.994 -1.0011 -0.4258 -0.4692
  146SAPE  H18Z16082   7.783   4.074   5.128  0.0666  1.4609 -0.9373
  147SAPE     N16083   6.590   5.285   7.336  0.1842  0.3976  0.0116
  147SAPE   HN116084   6.637   5.236   7.416  0.0884  2.4402  1.3978
  147SAPE   HN216085   6.654   5.286   7.254  0.1617 -1.6564 -0.0848
  147SAPE   HN316086   6.571   5.382   7.368 -1.0224 -0.4801  2.1631
  147SAPE   C1216087   6.465   5.214   7.286 -0.1109  0.6084  0.1502
  147SAPE  H12A16088   6.476   5.106   7.311  0.0099  1.0782  2.2538
  147SAPE  H12B16089   6.473   5.217   7.175 -0.6557  0.4969  0.1076
  147SAPE   C1116090   6.345   5.276   7.352  0.4297  0.0441  0.5527
  147SAPE  H11A16091   6.344   5.251   7.460 -4.0466 -0.0078  0.6931
  147SAPE  H11B16092   6.251   5.229   7.315 -0.8186  2.0354  0.9940
  147SAPE     P16093   6.248   5.519   7.402  0.0456 -0.1843 -0.1628
  147SAPE   O1316094   6.176   5.435   7.500 -0.0981 -0.2571  0.4670
  147SAPE   O1416095   6.333   5.631   7.445 -0.1931 -0.0744 -0.3560
  147SAPE   O1216096   6.333   5.419   7.323  0.4154  0.0893  0.0340
  147SAPE   O1116097   6.149   5.568   7.293  0.5117 -0.1748  0.2693
  147SAPE    C116098   6.084   5.488   7.184  0.1561  0.4383  0.1130
  147SAPE    HA16099   6.119   5.382   7.186 -0.2967  0.2902  1.9722
  147SAPE    HB16100   5.977   5.481   7.210 -0.2501  1.9041 -1.0043
  147SAPE    C216101   6.102   5.547   7.038  0.1121  0.7296 -0.0615
  147SAPE    HS16102   6.072   5.465   6.970 -0.3486 -0.8170  1.8984
  147SAPE   O2116103   6.240   5.594   7.005  0.4283  1.0867  0.5419
  147SAPE   C2116104   6.325   5.497   7.023  0.7700 -0.4323 -0.1712
  147SAPE   O2216105   6.307   5.379   7.031  0.9655 -0.1349  0.1815
  147SAPE   C2216106   6.464   5.559   7.042 -0.4709  0.9800  1.1880
  147SAPE   H2R16107   6.473   5.648   6.977 -2.4210  0.1903 -0.2331
  147SAPE   H2S16108   6.480   5.569   7.152  0.7613 -1.0493  1.2557
  147SAPE    C316109   6.003   5.671   7.021 -0.4720  0.8912 -0.2634
  147SAPE    HX16110   6.059   5.762   7.053 -0.1977  1.1724 -1.4931
  147SAPE    HY16111   5.909   5.676   7.080 -0.9220  0.4224 -0.9270
  147SAPE   O3116112   5.964   5.695   6.884  0.7108 -0.1642 -0.6480
  147SAPE   C3116113   5.869   5.618   6.834  0.3575 -0.3117  0.6768
  147SAPE   O3216114   5.815   5.526   6.892 -0.5133  0.1139  0.9192
  147SAPE   C3216115   5.845   5.678   6.693 -0.7078  0.0203  0.2749
  147SAPE   H2X16116   5.875   5.597   6.623  0.3756  0.7876 -0.1956
  147SAPE   H2Y16117   5.905   5.772   6.683  0.0694 -0.5127 -0.1952
  147SAPE   C2316118   6.582   5.482   6.985 -0.2844 -0.2246 -0.0888
  147SAPE   H3R16119   6.584   5.382   7.035  0.5528 -0.9486 -1.5138
  147SAPE   H3S16120   6.680   5.532   6.998 -0.2720 -0.5215  1.0812
  147SAPE   C2416121   6.569   5.448   6.841  0.1105 -0.3388 -0.9016
  147SAPE   H4R16122   6.540   5.534   6.776  1.4107  0.1884 -0.8043
  147SAPE   H4S16123   6.484   5.378   6.829  0.6897 -0.9465 -1.5278
  147SAPE   C2516124   6.689   5.375   6.785 -0.1437  0.5243 -0.0252
  147SAPE   H5R16125   6.713   5.277   6.830  0.7705  0.2694 -1.0185
  147SAPE   C2616126   6.760   5.404   6.677 -0.0984  0.1963 -0.1483
  147SAPE   H6R16127   6.847   5.343   6.649 -0.8978 -1.0916  0.0951
  147SAPE   C2716128   6.740   5.525   6.585 -0.0838 -0.4775  0.0295
  147SAPE   H7R16129   6.634   5.559   6.597 -0.6671 -1.4921 -1.8624
  147SAPE   H7S16130   6.746   5.486   6.481 -0.2109  0.6854 -0.4376
  147SAPE   C2816131   6.828   5.649   6.594 -0.4505 -0.1656  0.1630
  147SAPE   H8R16132   6.812   5.707   6.686 -0.4466 -1.3514  0.9307
  147SAPE   C2916133   6.907   5.709   6.496 -0.5078 -0.4049  0.1876
  147SAPE   H9R16134   6.953   5.806   6.522 -0.3175 -0.7497  1.2205
  147SAPE  C21016135   6.935   5.651   6.362  0.3346 -0.2173 -0.1471
  147SAPE  H10R16136   6.843   5.593   6.338 -0.8657  1.5966 -0.0739
  147SAPE  H10S16137   7.009   5.569   6.380 -3.2008 -3.4517  1.2155
  147SAPE  C21116138   6.961   5.750   6.251 -0.2095  0.2078  0.2763
  147SAPE  H11R16139   6.879   5.777   6.184  1.6801  2.2731 -1.3615
  147SAPE  C21216140   7.076   5.810   6.231 -0.6085  0.4152  0.4845
  147SAPE  H12R16141   7.078   5.879   6.146  0.4540  0.9862  0.9452
  147SAPE  C21316142   7.206   5.792   6.305 -0.8084 -0.6703  0.3405
  147SAPE  H13R16143   7.207   5.689   6.346  0.5186 -0.7715  0.0969
  147SAPE  H13S16144   7.211   5.851   6.399  2.2556 -2.7367  1.6183
  147SAPE  C21416145   7.331   5.829   6.221 -0.3415  0.0114 -0.2812
  147SAPE  H14R16146   7.360   5.755   6.145 -1.7039  1.4788 -2.3515
  147SAPE  C21516147   7.404   5.942   6.229  0.5623  0.2698  0.1689
  147SAPE  H15R16148   7.494   5.958   6.167  0.2993  2.6989  0.3221
  147SAPE  C21616149   7.379   6.057   6.321 -0.1691 -0.7085  0.2030
  147SAPE  H16R16150   7.466   6.104   6.371  0.4479 -1.5941 -0.0209
  147SAPE  H16S16151   7.303   6.030   6.397 -0.3778  3.0168  1.5345
  147SAPE  C21716152   7.323   6.179   6.242  0.1708 -0.1388  0.0261
  147SAPE  H17R16153   7.400   6.226   6.177  0.1062  2.5254  1.7114
  147SAPE  H17S16154   7.291   6.259   6.313 -2.8757  0.0422 -1.3899
  147SAPE  C21816155   7.192   6.146   6.155  0.4061  0.4203  0.0003
  147SAPE  H18R16156   7.110   6.103   6.217 -0.7719  0.2972 -1.5852
  147SAPE  H18S16157   7.214   6.061   6.088 -3.2365 -0.2631 -0.5572
  147SAPE  C21916158   7.153   6.268   6.076 -0.9006 -0.0530  0.3768
  147SAPE  H19R16159   7.060   6.248   6.019 -0.0962 -0.2363 -0.9206
  147SAPE  H19S16160   7.231   6.286   5.999 -1.6493 -1.6293 -0.8206
  147SAPE  C22016161   7.118   6.398   6.147  0.6057  0.3961  0.1936
  147SAPE  H20R16162   7.035   6.382   6.220  0.9002 -1.0326  0.2604
  147SAPE  H20S16163   7.078   6.474   6.077  0.0376  0.2709  0.3727
  147SAPE  H20T16164   7.202   6.445   6.201  0.2751  2.2955 -0.8832
  147SAPE   C3316165   5.698   5.715   6.667 -0.0965  0.1782  0.5252
  147SAPE   H3X16166   5.671   5.796   6.738 -1.1173  0.7083 -0.4390
  147SAPE   H3Y16167   5.649   5.618   6.693  1.1977 -0.6427 -0.0165
  147SAPE   C3416168   5.665   5.760   6.521 -0.0461  1.0501 -0.1942
  147SAPE   H4X16169   5.703   5.684   6.450 -3.7426 -1.1623 -0.0253
  147SAPE   H4Y16170   5.711   5.860   6.502 -0.9046  1.4346 -0.2909
  147SAPE   C3516171   5.514   5.774   6.476 -0.0215 -0.2528  0.1637
  147SAPE   H5X16172   5.449   5.812   6.557 -3.0598 -2.8000 -0.8363
  147SAPE   H5Y16173   5.471   5.673   6.458  2.1287 -1.1104 -0.5308
  147SAPE   C3616174   5.493   5.863   6.352  0.2245  0.5126 -0.2387
  147SAPE   H6X16175   5.517   5.970   6.373  0.0252  0.4467  0.3322
  147SAPE   H6Y16176   5.383   5.859   6.336 -0.0372  0.3251  1.4557
  147SAPE   C3716177   5.555   5.832   6.215 -0.2352  0.4901 -0.7679
  147SAPE   H7X16178   5.537   5.727   6.185  1.1009 -0.2271  0.7445
  147SAPE   H7Y16179   5.666   5.843   6.217 -0.1271 -0.4791  1.0439
  147SAPE   C3816180   5.493   5.932   6.117  0.7468  0.8314  0.2546
  147SAPE   H8X16181   5.498   6.032   6.166 -0.2249  1.7101 -1.3742
  147SAPE   H8Y16182   5.385   5.911   6.105  0.5886  1.6602  0.1317
  147SAPE   C3916183   5.555   5.935   5.980 -0.3773 -0.4334  0.3963
  147SAPE   H9X16184   5.564   5.829   5.950 -0.7599 -0.4612  0.3748
  147SAPE   H9Y16185   5.656   5.980   5.985 -1.4338  1.9659  2.6224
  147SAPE  C31016186   5.483   6.034   5.892  0.8424 -0.2767  0.2902
  147SAPE  H10X16187   5.484   6.134   5.941 -2.3366  0.9391 -1.7878
  147SAPE  H10Y16188   5.375   6.011   5.889  0.6889  0.1849  1.6482
  147SAPE  C31116189   5.541   6.057   5.751  0.2012 -0.4092 -0.4163
  147SAPE  H11X16190   5.638   6.107   5.773 -0.4317 -0.1088  2.0562
  147SAPE  H11Y16191   5.477   6.131   5.698  0.8624 -0.6918 -1.6528
  147SAPE  C31216192   5.557   5.942   5.655 -0.3825  0.1434  0.5186
  147SAPE  H12X16193   5.629   5.868   5.695  0.5879 -0.0613 -1.4857
  147SAPE  H12Y16194   5.587   5.993   5.561 -2.2275  1.0928  0.3840
  147SAPE  C31316195   5.419   5.875   5.629  0.0186  0.5094  0.0016
  147SAPE  H13X16196   5.352   5.949   5.582  0.6149  0.7162 -0.5344
  147SAPE  H13Y16197   5.378   5.843   5.728 -0.2137  0.6865 -0.0379
  147SAPE  C31416198   5.431   5.752   5.538  0.3892 -0.5367  0.3356
  147SAPE  H14X16199   5.521   5.693   5.564  0.8074 -0.1172 -0.1397
  147SAPE  H14Y16200   5.449   5.792   5.436  0.7174  0.1753  0.6605
  147SAPE  C31516201   5.309   5.657   5.527  0.5600  0.2415 -0.2332
  147SAPE  H15X16202   5.214   5.710   5.502  0.0721  0.7209  2.3476
  147SAPE  H15Y16203   5.293   5.604   5.624 -0.0499 -1.1605 -1.0760
  147SAPE  C31616204   5.335   5.540   5.431 -0.5195 -0.5842  0.3053
  147SAPE  H16X16205   5.422   5.476   5.458 -0.6614 -1.5151 -1.3887
  147SAPE  H16Y16206   5.362   5.586   5.334  1.6762  0.2061  1.2051
  147SAPE  C31716207   5.217   5.442   5.417  0.7437  0.7190  0.6012
  147SAPE  H17X16208   5.138   5.507   5.373  2.1510  0.0001 -3.3638
  147SAPE  H17Y16209   5.177   5.407   5.515  2.0044 -0.7154  0.6398
  147SAPE  C31816210   5.251   5.321   5.317  0.1792 -1.0355 -1.1202
  147SAPE  H18X16211   5.269   5.360   5.214  1.6245 -0.1569 -0.5735
  147SAPE  H18Y16212   5.165   5.253   5.302  1.1795 -2.6726  0.2565
  147SAPE  H18Z16213   5.336   5.264   5.360  1.1646  0.6703 -0.7419
  148SAPE     N16214   3.431   6.832   6.945 -0.8080 -0.2258  0.0939
  148SAPE   HN116215   3.505   6.903   6.962  0.6837 -1.8304  0.5389
  148SAPE   HN216216   3.340   6.881   6.932 -0.9930 -0.7803 -0.8309
  148SAPE   HN316217   3.431   6.773   7.030 -0.7927 -0.0202  0.2366
  148SAPE   C1216218   3.459   6.761   6.814 -0.5179  0.8294  0.4454
  148SAPE  H12A16219   3.481   6.834   6.733  1.5642  2.1016  2.0349
  148SAPE  H12B16220   3.366   6.711   6.781  0.2241 -0.5799  0.4464
  148SAPE   C1116221   3.581   6.665   6.839 -0.7571  0.4658 -0.5160
  148SAPE  H11A16222   3.663   6.737   6.818  0.7749 -0.6429  1.3393
  148SAPE  H11B16223   3.580   6.599   6.750 -1.3183  0.9683 -0.8894
  148SAPE     P16224   3.543   6.447   6.988 -0.3537 -0.3980 -0.0101
  148SAPE   O1316225   3.615   6.387   7.105 -0.6967  0.7841  0.2103
  148SAPE   O1416226   3.394   6.452   6.990 -0.2600  0.9096 -0.4130
  148SAPE   O1216227   3.597   6.597   6.968  0.2173 -0.0087 -0.1242
  148SAPE   O1116228   3.587   6.377   6.853  0.1558 -0.6003 -0.7560
  148SAPE    C116229   3.727   6.373   6.830 -0.3232  0.0421  0.0329
  148SAPE    HA16230   3.786   6.464   6.854 -1.2685  0.6753 -0.0090
  148SAPE    HB16231   3.766   6.289   6.892 -0.1434 -0.0558 -0.2102
  148SAPE    C216232   3.773   6.334   6.690 -0.3695  0.6246 -0.4456
  148SAPE    HS16233   3.880   6.305   6.698 -1.1538 -2.5338 -0.0550
  148SAPE   O2116234   3.753   6.448   6.597 -1.3450 -0.2556  0.8866
  148SAPE   C2116235   3.845   6.461   6.497  0.3026 -0.4237 -0.6728
  148SAPE   O2216236   3.946   6.397   6.486 -0.0139  0.4347  0.1601
  148SAPE   C2216237   3.802   6.583   6.404  0.4589  0.0872 -0.0372
  148SAPE   H2R16238   3.696   6.566   6.374 -0.4579  0.2559  2.7214
  148SAPE   H2S16239   3.790   6.665   6.479  0.2265 -0.4218  0.4982
  148SAPE    C316240   3.700   6.199   6.648 -0.5113 -0.3386  0.2379
  148SAPE    HX16241   3.591   6.221   6.638 -0.9472 -2.7358 -0.8663
  148SAPE    HY16242   3.713   6.120   6.724 -4.7219 -1.2760  0.2297
  148SAPE   O3116243   3.744   6.161   6.513 -0.2490  0.6592  0.5141
  148SAPE   C3116244   3.867   6.117   6.493  0.1077 -0.2169  0.1072
  148SAPE   O3216245   3.950   6.103   6.578 -0.0351 -0.8343  0.9383
  148SAPE   C3216246   3.884   6.079   6.340 -0.3213  0.1860  0.7055
  148SAPE   H2X16247   3.820   6.133   6.267 -0.8000 -0.8414  0.3465
  148SAPE   H2Y16248   3.857   5.971   6.336 -0.2799  0.1541  1.2119
  148SAPE   C2316249   3.889   6.615   6.279 -0.1576 -0.4711 -0.1346
  148SAPE   H3R16250   3.991   6.638   6.316 -0.8181  1.2238  0.7800
  148SAPE   H3S16251   3.862   6.717   6.244 -0.9884 -0.6673 -0.0969
  148SAPE   C2416252   3.881   6.513   6.158 -0.3827  0.1306 -0.6736
  148SAPE   H4R16253   3.898   6.410   6.197  0.1575  0.4785  0.0328
  148SAPE   H4S16254   3.957   6.533   6.080  0.5618  3.3567  0.8984
  148SAPE   C2516255   3.747   6.528   6.095  0.4751 -0.4298 -0.7631
  148SAPE   H5R16256   3.727   6.630   6.060  0.6194  0.0968  0.6218
  148SAPE   C2616257   3.669   6.428   6.056  0.0450  0.4567  0.1202
  148SAPE   H6R16258   3.566   6.448   6.021  0.3646 -0.6879 -1.5651
  148SAPE   C2716259   3.683   6.281   6.077  0.1517  0.5367 -0.1549
  148SAPE   H7R16260   3.616   6.261   6.164 -1.2992 -3.1216 -1.9094
  148SAPE   H7S16261   3.783   6.243   6.106 -0.3194  0.8132  2.0216
  148SAPE   C2816262   3.637   6.199   5.962 -0.3594  0.7316 -0.4280
  148SAPE   H8R16263   3.534   6.162   5.977 -0.4240  0.5551 -1.2492
  148SAPE   C2916264   3.678   6.199   5.833 -0.7567  0.8109  0.2584
  148SAPE   H9R16265   3.613   6.144   5.764 -0.5864  1.6141 -0.5517
  148SAPE  C21016266   3.794   6.267   5.763 -0.1258  0.2940 -0.1789
  148SAPE  H10R16267   3.887   6.207   5.773  1.9659  3.3635  0.3621
  148SAPE  H10S16268   3.817   6.363   5.814 -2.1131  0.6006  0.2116
  148SAPE  C21116269   3.783   6.289   5.612 -0.6745 -0.0435  0.6863
  148SAPE  H11R16270   3.836   6.223   5.543 -0.5937  0.8090 -0.0937
  148SAPE  C21216271   3.742   6.408   5.557 -0.2991 -1.5050 -0.5764
  148SAPE  H12R16272   3.736   6.422   5.448  0.6374  1.3301 -0.3422
  148SAPE  C21316273   3.684   6.533   5.629 -0.1493  0.2575  0.2813
  148SAPE  H13R16274   3.739   6.532   5.726 -0.9447 -1.9363  0.7692
  148SAPE  H13S16275   3.578   6.511   5.652 -0.5039  1.2778 -0.3193
  148SAPE  C21416276   3.716   6.669   5.572 -0.2428  0.0613  0.2963
  148SAPE  H14R16277   3.629   6.724   5.534  0.0579 -1.3748 -2.8187
  148SAPE  C21516278   3.830   6.740   5.560 -0.6093  0.0188  0.0644
  148SAPE  H15R16279   3.825   6.840   5.515 -0.9062  0.9868  2.1133
  148SAPE  C21616280   3.969   6.698   5.598 -0.2864  0.2929  0.4700
  148SAPE  H16R16281   4.026   6.706   5.503 -2.6717  1.7368 -0.9594
  148SAPE  H16S16282   3.973   6.594   5.635  1.7683 -0.8650 -2.6716
  148SAPE  C21716283   4.035   6.794   5.693 -0.3600  0.4974 -0.0237
  148SAPE  H17R16284   4.025   6.897   5.655 -1.2828  0.0796 -0.9354
  148SAPE  H17S16285   4.142   6.765   5.697 -0.6993 -0.9927 -0.8509
  148SAPE  C21816286   3.989   6.789   5.842  0.1231 -0.4714 -0.4179
  148SAPE  H18R16287   4.087   6.759   5.886  0.6910  0.7902 -0.7860
  148SAPE  H18S16288   3.915   6.707   5.853  0.7500 -1.0022 -0.0553
  148SAPE  C21916289   3.933   6.927   5.887  0.1943 -0.8677 -0.2510
  148SAPE  H19R16290   3.859   6.960   5.811 -2.1769 -1.8228  1.5164
  148SAPE  H19S16291   4.025   6.990   5.880  1.1252 -2.2841 -1.3608
  148SAPE  C22016292   3.856   6.926   6.017 -0.0405 -0.7290 -0.4583
  148SAPE  H20R16293   3.782   7.008   6.014 -0.4674 -1.1298 -1.1610
  148SAPE  H20S16294   3.925   6.959   6.098 -0.1498 -3.0774  0.7017
  148SAPE  H20T16295   3.815   6.827   6.048  0.5843 -0.8323  0.0828
  148SAPE   C3316296   4.031   6.100   6.299 -0.3535  0.3479 -0.2735
  148SAPE   H3X16297   4.098   6.021   6.338 -0.5994 -1.1936 -2.7690
  148SAPE   H3Y16298   4.078   6.189   6.345  1.7285 -1.9527  2.3657
  148SAPE   C3416299   4.047   6.098   6.151  0.2842 -0.2992  0.2434
  148SAPE   H4X16300   4.156   6.078   6.139  0.6013 -0.3259  2.7058
  148SAPE   H4Y16301   4.032   6.195   6.099 -0.8473  0.6263  2.2083
  148SAPE   C3516302   3.976   5.983   6.071 -0.6108 -0.0101 -0.4102
  148SAPE   H5X16303   3.869   6.014   6.063 -0.2703  0.9363 -1.5181
  148SAPE   H5Y16304   3.990   5.894   6.136 -0.3576  0.7434  0.6022
  148SAPE   C3616305   4.048   5.978   5.934  0.0116 -0.0316  0.3109
  148SAPE   H6X16306   4.151   5.939   5.952  1.3480  1.8545 -2.6672
  148SAPE   H6Y16307   4.048   6.082   5.896 -4.3459  0.3410  0.8070
  148SAPE   C3716308   3.972   5.888   5.828 -0.2270 -0.2106 -0.7460
  148SAPE   H7X16309   3.865   5.915   5.812 -0.4693 -0.5344  0.2297
  148SAPE   H7Y16310   3.975   5.785   5.871 -1.8835 -0.1782 -0.4894
  148SAPE   C3816311   4.045   5.900   5.695  0.8847 -0.4625  0.0823
  148SAPE   H8X16312   4.149   5.862   5.699  1.0118 -0.5201 -2.2969
  148SAPE   H8Y16313   4.041   6.007   5.665 -0.4230 -0.0964  1.4163
  148SAPE   C3916314   3.981   5.809   5.585  0.3289 -0.0955 -0.6282
  148SAPE   H9X16315   3.878   5.847   5.565  1.3640  2.5946 -1.3300
  148SAPE   H9Y16316   3.985   5.708   5.630 -0.6517  0.1802  0.1113
  148SAPE  C31016317   4.050   5.827   5.449  0.2569  0.2706 -0.0453
  148SAPE  H10X16318   4.151   5.789   5.476 -0.4349  0.3601  2.9742
  148SAPE  H10Y16319   4.050   5.936   5.431  2.4064  0.2798 -0.2851
  148SAPE  C31116320   3.985   5.752   5.339  0.4156  0.0935 -0.0046
  148SAPE  H11X16321   3.976   5.641   5.343 -0.9711  0.1081 -1.4209
  148SAPE  H11Y16322   4.051   5.758   5.250  3.0163  1.2349  1.8800
  148SAPE  C31216323   3.857   5.821   5.287  0.6029 -0.3014  0.4049
  148SAPE  H12X16324   3.860   5.932   5.289 -1.8076 -0.0806 -2.0573
  148SAPE  H12Y16325   3.783   5.805   5.368  0.5140  0.0500  0.3950
  148SAPE  C31316326   3.810   5.760   5.156 -0.8857 -0.2837 -0.1154
  148SAPE  H13X16327   3.701   5.782   5.153 -0.9251  0.5243  3.2726
  148SAPE  H13Y16328   3.827   5.650   5.161  1.1852  0.0529  1.0519
  148SAPE  C31416329   3.870   5.825   5.037 -0.3648 -0.1155  0.2793
  148SAPE  H14X16330   3.887   5.755   4.953 -1.4776  0.6250 -0.5961
  148SAPE  H14Y16331   3.970   5.856   5.076 -0.3912  0.2850  0.0364
  148SAPE  C31516332   3.798   5.944   4.982 -0.3006 -1.2123 -0.3146
  148SAPE  H15X16333   3.798   6.034   5.048 -0.9245  0.0816 -1.9958
  148SAPE  H15Y16334   3.689   5.925   4.972 -0.2579 -0.9031 -1.4354
  148SAPE  C31616335   3.849   5.990   4.844 -0.4100  0.0645  0.3017
  148SAPE  H16X16336   3.875   5.897   4.789  1.4809  1.2967 -1.0215
  148SAPE  H16Y16337   3.950   6.038   4.848  1.3078 -3.3216  0.7939
  148SAPE  C31716338   3.752   6.077   4.765 -0.4292  0.3736  0.1615
  148SAPE  H17X16339   3.654   6.026   4.754  0.4816 -0.8949 -3.2951
  148SAPE  H17Y16340   3.800   6.085   4.665  0.4367 -2.0860  0.3056
  148SAPE  C31816341   3.735   6.217   4.817  0.5036 -0.0225 -0.5171
  148SAPE  H18X16342   3.673   6.265   4.738  0.1769 -0.2917 -0.4286
  148SAPE  H18Y16343   3.838   6.257   4.828 -0.1386  2.1079 -1.7476
  148SAPE  H18Z16344   3.691   6.211   4.919 -1.0906  0.1763 -1.1562
  149SAPE     N16345   4.563   1.877   7.175 -0.0179 -0.5757 -0.1263
  149SAPE   HN116346   4.640   1.868   7.106  0.0843 -0.6614 -0.0005
  149SAPE   HN216347   4.598   1.863   7.272 -1.3209  1.8704  0.7835
  149SAPE   HN316348   4.484   1.815   7.145  1.0685 -0.4525 -3.7213
  149SAPE   C1216349   4.525   2.020   7.177  0.0919  0.3997  0.2520
  149SAPE  H12A16350   4.596   2.075   7.243  1.0155 -0.5966  0.1327
  149SAPE  H12B16351   4.422   2.026   7.219  0.2880  1.3052  0.6342
  149SAPE   C1116352   4.526   2.084   7.036 -0.4923  0.2346 -0.5177
  149SAPE  H11A16353   4.458   2.171   7.043  0.9206  1.4694 -1.4497
  149SAPE  H11B16354   4.477   2.016   6.963 -1.0536 -0.0122  0.0733
  149SAPE     P16355   4.723   2.260   7.040 -0.3447  0.0241 -0.1835
  149SAPE   O1316356   4.695   2.282   7.182  0.2944 -0.0402 -0.1562
  149SAPE   O1416357   4.868   2.266   7.012 -0.2956 -0.3103 -0.4145
  149SAPE   O1216358   4.661   2.122   6.992  0.4782 -0.0539 -0.0840
  149SAPE   O1116359   4.657   2.373   6.956 -0.8963 -0.2608  0.0275
  149SAPE    C116360   4.661   2.374   6.816  0.1155  0.3067  0.2559
  149SAPE    HA16361   4.674   2.479   6.782 -0.6698  0.3838  0.1687
  149SAPE    HB16362   4.739   2.310   6.771  0.2238 -0.1709  1.1042
  149SAPE    C216363   4.524   2.332   6.749  0.5122 -0.9649  0.0460
  149SAPE    HS16364   4.442   2.368   6.815  0.2034 -2.2404  0.4012
  149SAPE   O2116365   4.522   2.189   6.739  0.1135  0.8169  0.4178
  149SAPE   C2116366   4.401   2.136   6.733 -0.4603 -0.1886  0.2845
  149SAPE   O2216367   4.297   2.181   6.777 -0.7937 -0.1379 -0.7107
  149SAPE   C2216368   4.407   2.001   6.670 -0.5771 -0.2909  1.2838
  149SAPE   H2R16369   4.506   1.979   6.626 -1.3018  2.9305 -2.5451
  149SAPE   H2S16370   4.415   1.925   6.751  0.3263 -1.0647  0.4871
  149SAPE    C316371   4.491   2.395   6.612 -0.3407  0.1737 -0.1915
  149SAPE    HX16372   4.384   2.374   6.594 -0.7594  0.6529  1.4944
  149SAPE    HY16373   4.549   2.350   6.529 -1.2572 -0.0933 -0.6934
  149SAPE   O3116374   4.504   2.543   6.612 -0.2964  0.6556 -0.2787
  149SAPE   C3116375   4.402   2.624   6.624  0.2873  0.3245  0.2836
  149SAPE   O3216376   4.287   2.588   6.635  0.0430 -0.4049  0.2012
  149SAPE   C3216377   4.448   2.770   6.599 -0.1227 -0.4278 -0.0637
  149SAPE   H2X16378   4.532   2.793   6.668  0.3981 -0.8722 -0.5355
  149SAPE   H2Y16379   4.364   2.837   6.627  0.6456  1.1047 -1.2547
  149SAPE   C2316380   4.290   1.973   6.575 -0.6358 -1.0058 -0.5656
  149SAPE   H3R16381   4.188   2.010   6.602 -0.0228 -0.0331  0.4743
  149SAPE   H3S16382   4.265   1.865   6.570 -1.5010 -0.7878 -1.2770
  149SAPE   C2416383   4.332   2.018   6.435  0.0990  0.2398 -0.2334
  149SAPE   H4R16384   4.428   1.975   6.399 -0.3789 -0.2439 -0.9619
  149SAPE   H4S16385   4.345   2.128   6.435  0.5768  0.2751  2.8587
  149SAPE   C2516386   4.235   1.971   6.331 -0.1912  0.1479  0.2284
  149SAPE   H5R16387   4.129   1.971   6.363 -0.1767  2.6046  0.4559
  149SAPE   C2616388   4.259   1.940   6.202 -0.3811 -0.4343  0.7336
  149SAPE   H6R16389   4.183   1.899   6.134  0.1045 -1.9015  1.0371
  149SAPE   C2716390   4.397   1.951   6.136 -0.4734  0.1336  0.5156
  149SAPE   H7R16391   4.479   1.938   6.209 -0.2944 -1.4531  0.0706
  149SAPE   H7S16392   4.411   2.055   6.099 -1.2104  0.6476  1.6065
  149SAPE   C2816393   4.416   1.850   6.025 -0.0026  0.3567 -0.0150
  149SAPE   H8R16394   4.472   1.758   6.045  2.0778  1.0385 -2.1764
  149SAPE   C2916395   4.368   1.861   5.901 -0.3564  0.1402 -0.6657
  149SAPE   H9R16396   4.394   1.789   5.822  0.7514  0.0073 -0.2039
  149SAPE  C21016397   4.277   1.963   5.853 -0.1035  0.3573 -0.1818
  149SAPE  H10R16398   4.226   2.021   5.932 -3.3053 -0.1011 -1.7195
  149SAPE  H10S16399   4.194   1.913   5.797  0.1983  0.7919 -1.0455
  149SAPE  C21116400   4.351   2.067   5.773 -0.4238  0.1220 -0.3707
  149SAPE  H11R16401   4.436   2.116   5.823 -0.5840 -0.8706  0.9248
  149SAPE  C21216402   4.320   2.117   5.653  0.8397 -0.3586 -0.1005
  149SAPE  H12R16403   4.403   2.169   5.603  1.7241 -1.5804  0.0644
  149SAPE  C21316404   4.215   2.063   5.559 -0.4523 -0.3453 -0.4298
  149SAPE  H13R16405   4.165   2.143   5.499  0.6512  0.4898 -0.2821
  149SAPE  H13S16406   4.144   1.996   5.611  0.9108 -0.9777  0.6963
  149SAPE  C21416407   4.292   1.977   5.457 -0.2385  0.3455 -0.0060
  149SAPE  H14R16408   4.378   1.921   5.496 -1.5697 -1.6014  0.2640
  149SAPE  C21516409   4.274   1.952   5.321  0.4826  0.6232 -0.2805
  149SAPE  H15R16410   4.357   1.907   5.265  1.3231 -0.0737  1.4622
  149SAPE  C21616411   4.152   1.992   5.235 -0.3244 -0.0457 -0.2326
  149SAPE  H16R16412   4.187   2.068   5.162 -0.6994  0.0865 -0.2805
  149SAPE  H16S16413   4.076   2.038   5.302 -0.0058  0.2575 -0.0814
  149SAPE  C21716414   4.096   1.868   5.165  0.0145 -0.0653  0.4806
  149SAPE  H17R16415   4.083   1.783   5.236 -1.3927 -1.1253 -0.9753
  149SAPE  H17S16416   4.173   1.850   5.087  1.1051  1.6009  1.1172
  149SAPE  C21816417   3.965   1.892   5.084 -0.5374  0.2412 -0.1720
  149SAPE  H18R16418   3.891   1.938   5.154  0.2521 -0.9175  1.4759
  149SAPE  H18S16419   3.913   1.804   5.040  1.2904 -0.2557 -1.4520
  149SAPE  C21916420   3.986   1.969   4.953 -0.3150 -0.1595  0.1653
  149SAPE  H19R16421   4.042   1.899   4.888  0.3912  0.7820 -0.2498
  149SAPE  H19S16422   4.060   2.048   4.977  0.2453 -1.0317  1.4334
  149SAPE  C22016423   3.857   2.014   4.889  0.7252 -0.1611  0.2295
  149SAPE  H20R16424   3.881   2.053   4.787  0.4838  1.6090  0.8085
  149SAPE  H20S16425   3.809   2.091   4.953 -1.5864 -0.3275 -1.1960
  149SAPE  H20T16426   3.787   1.931   4.868 -1.2166  1.3991  0.2502
  149SAPE   C3316427   4.512   2.797   6.456  0.3308  0.6218 -0.3732
  149SAPE   H3X16428   4.427   2.811   6.385  2.0161 -1.2973 -2.9603
  149SAPE   H3Y16429   4.570   2.707   6.426  0.6797 -0.7706  3.8309
  149SAPE   C3416430   4.595   2.921   6.458 -0.9753 -0.0832 -0.3167
  149SAPE   H4X16431   4.690   2.916   6.514 -0.7537  0.1297 -0.6711
  149SAPE   H4Y16432   4.542   3.008   6.502  0.6492  0.9764 -0.3811
  149SAPE   C3516433   4.648   2.962   6.319  0.1175  0.1663  0.5090
  149SAPE   H5X16434   4.720   3.045   6.328  0.7758 -0.3528  0.1250
  149SAPE   H5Y16435   4.558   2.996   6.262  0.2028 -0.4754 -0.0306
  149SAPE   C3616436   4.724   2.861   6.231  0.3034 -0.1526  0.0231
  149SAPE   H6X16437   4.673   2.762   6.232 -0.1404  0.0772  0.6140
  149SAPE   H6Y16438   4.824   2.850   6.278 -0.7497 -1.7602  2.1023
  149SAPE   C3716439   4.740   2.919   6.094  0.4629 -0.8265  0.0623
  149SAPE   H7X16440   4.821   2.857   6.050  0.1896 -2.7260  2.0660
  149SAPE   H7Y16441   4.775   3.024   6.101 -1.0407 -0.3281  0.4563
  149SAPE   C3816442   4.606   2.900   6.014  0.3186  0.5178 -0.8618
  149SAPE   H8X16443   4.528   2.972   6.048  0.4777  0.7697 -1.0312
  149SAPE   H8Y16444   4.565   2.797   6.028 -1.6994  1.1523 -1.6694
  149SAPE   C3916445   4.628   2.902   5.864  0.2922 -0.0646 -1.0225
  149SAPE   H9X16446   4.705   2.830   5.830  2.3716 -0.0590  3.0607
  149SAPE   H9Y16447   4.675   2.998   5.834  0.9646 -0.0265  0.0950
  149SAPE  C31016448   4.491   2.868   5.791  0.0627 -0.4069 -0.2623
  149SAPE  H10X16449   4.427   2.959   5.803  3.1067  2.2441 -2.2088
  149SAPE  H10Y16450   4.445   2.782   5.843 -2.1036  0.6959 -0.2476
  149SAPE  C31116451   4.503   2.847   5.642  0.3528 -0.5007  0.4324
  149SAPE  H11X16452   4.417   2.793   5.598 -1.5444  2.7337 -0.1173
  149SAPE  H11Y16453   4.593   2.783   5.627  2.0326  1.9184 -0.6543
  149SAPE  C31216454   4.525   2.967   5.545  0.4760 -0.2607  0.4555
  149SAPE  H12X16455   4.622   3.018   5.562 -0.3207  1.9916 -1.3668
  149SAPE  H12Y16456   4.453   3.040   5.586  0.2992  0.7857 -1.6188
  149SAPE  C31316457   4.493   2.931   5.407  0.4797 -0.4732 -0.4442
  149SAPE  H13X16458   4.502   3.029   5.357 -0.4768 -0.1908 -0.0917
  149SAPE  H13Y16459   4.387   2.901   5.394  0.1365 -0.4309  1.7676
  149SAPE  C31416460   4.567   2.814   5.337 -0.7345 -0.1189 -0.4228
  149SAPE  H14X16461   4.541   2.720   5.390  0.0252  1.1127  2.3052
  149SAPE  H14Y16462   4.673   2.841   5.359 -1.7241  1.7429  2.7152
  149SAPE  C31516463   4.542   2.805   5.193  0.4926  0.3515  0.1212
  149SAPE  H15X16464   4.432   2.793   5.191  0.2980  1.9828 -1.9281
  149SAPE  H15Y16465   4.598   2.718   5.154  1.8856  0.6043  1.4290
  149SAPE  C31616466   4.567   2.938   5.117  0.0833 -0.5046  0.5213
  149SAPE  H16X16467   4.658   2.991   5.154  0.3520 -0.9475  0.5007
  149SAPE  H16Y16468   4.479   3.005   5.131  0.0947 -0.2711 -0.4334
  149SAPE  C31716469   4.582   2.905   4.975  0.1339 -1.1370  0.1728
  149SAPE  H17X16470   4.498   2.840   4.942 -2.6881  1.3771  1.8944
  149SAPE  H17Y16471   4.681   2.857   4.961  0.3682 -0.1602 -2.0400
  149SAPE  C31816472   4.587   3.038   4.886 -0.3174 -0.2791 -0.8996
  149SAPE  H18X16473   4.601   3.018   4.777  0.5425  0.6161 -0.9705
  149SAPE  H18Y16474   4.672   3.100   4.923  0.2076  0.5963 -3.3869
  149SAPE  H18Z16475   4.500   3.102   4.911  0.1379 -0.9359  2.8939
  150SAPE     N16476   1.750   3.989   7.115 -0.2980  0.1324 -0.3331
  150SAPE   HN116477   1.656   4.023   7.084 -1.5762  0.5886  3.4442
  150SAPE   HN216478   1.818   4.034   7.051 -0.1823  0.4763  0.0263
  150SAPE   HN316479   1.759   3.886   7.107 -1.4235  0.1332 -2.1449
  150SAPE   C1216480   1.794   4.045   7.249  0.0920  0.3741 -0.3171
  150SAPE  H12A16481   1.882   3.989   7.287 -0.3869  0.6902  1.3905
  150SAPE  H12B16482   1.708   4.026   7.317  0.1565  1.1337 -0.0143
  150SAPE   C1116483   1.837   4.196   7.239 -0.1329 -0.1322 -0.3088
  150SAPE  H11A16484   1.752   4.268   7.235 -2.4290 -2.3559  2.8530
  150SAPE  H11B16485   1.906   4.204   7.152  3.7778 -1.9146  2.3135
  150SAPE     P16486   2.059   4.228   7.378  0.0377  0.2299  0.1553
  150SAPE   O1316487   2.095   4.326   7.486 -0.0291  0.2718 -0.6688
  150SAPE   O1416488   2.102   4.087   7.391 -0.4025 -0.2354 -0.2660
  150SAPE   O1216489   1.899   4.232   7.365 -0.4015  0.4078  0.3500
  150SAPE   O1116490   2.110   4.276   7.236 -1.0343 -0.0552 -0.0918
  150SAPE    C116491   2.247   4.225   7.203  0.1083  0.2588  0.3181
  150SAPE    HA16492   2.312   4.309   7.170  0.1206  0.1425  0.0403
  150SAPE    HB16493   2.297   4.171   7.286 -0.2593 -2.7614 -1.2866
  150SAPE    C216494   2.248   4.135   7.070  0.2255  0.3133  0.5300
  150SAPE    HS16495   2.355   4.119   7.045 -0.0313  1.3406 -1.4116
  150SAPE   O2116496   2.190   4.198   6.959  0.3395 -0.2281 -0.1346
  150SAPE   C2116497   2.245   4.298   6.904  0.1720 -0.2830  0.7207
  150SAPE   O2216498   2.352   4.346   6.918  0.6517 -0.3663  0.6589
  150SAPE   C2216499   2.140   4.360   6.795  0.1653 -0.1962 -0.5253
  150SAPE   H2R16500   2.072   4.275   6.770  0.7525 -0.5313 -1.0212
  150SAPE   H2S16501   2.073   4.442   6.830  0.8348 -0.0820  0.5064
  150SAPE    C316502   2.187   3.996   7.082  0.8294 -0.0353 -0.3042
  150SAPE    HX16503   2.083   4.016   7.115  0.4512  0.4921 -1.7388
  150SAPE    HY16504   2.244   3.942   7.160  0.9560  1.1758  0.4731
  150SAPE   O3116505   2.163   3.927   6.963  0.3803  0.0276 -0.5360
  150SAPE   C3116506   2.254   3.848   6.922  0.2748  0.3231  0.6365
  150SAPE   O3216507   2.373   3.858   6.949 -0.2876  0.2671 -0.3618
  150SAPE   C3216508   2.195   3.751   6.813  0.2215  0.5581 -0.9351
  150SAPE   H2X16509   2.101   3.786   6.766 -0.9467 -0.5415  0.4962
  150SAPE   H2Y16510   2.171   3.659   6.871 -2.8103  2.3053  0.8606
  150SAPE   C2316511   2.209   4.409   6.672 -0.3713  0.6671 -0.3666
  150SAPE   H3R16512   2.268   4.325   6.629 -0.7150 -1.3142  2.7122
  150SAPE   H3S16513   2.278   4.490   6.703 -0.4106  0.4183  0.3895
  150SAPE   C2416514   2.114   4.468   6.567 -0.1784 -0.2465 -0.4103
  150SAPE   H4R16515   2.171   4.525   6.490 -0.5491  2.8177  1.4122
  150SAPE   H4S16516   2.056   4.547   6.619  1.6615  0.9905 -0.1474
  150SAPE   C2516517   2.030   4.357   6.512  0.8002 -0.1293  0.3566
  150SAPE   H5R16518   1.935   4.328   6.560 -0.2371  1.3157 -0.7255
  150SAPE   C2616519   2.061   4.287   6.404  0.1733 -0.5391  0.3619
  150SAPE   H6R16520   1.997   4.203   6.374 -0.2830  0.3698 -1.3382
  150SAPE   C2716521   2.182   4.314   6.312  0.7860  1.1749 -0.4604
  150SAPE   H7R16522   2.227   4.216   6.286 -1.8573 -0.0312 -0.8883
  150SAPE   H7S16523   2.256   4.367   6.376  1.1802  0.8737 -0.6619
  150SAPE   C2816524   2.155   4.387   6.182 -0.0753 -0.2902  0.0385
  150SAPE   H8R16525   2.170   4.496   6.190 -0.7696 -0.0772 -1.3740
  150SAPE   C2916526   2.129   4.326   6.067  1.2410  0.2439  0.0070
  150SAPE   H9R16527   2.113   4.392   5.981 -1.2170 -0.0382  0.1785
  150SAPE  C21016528   2.108   4.176   6.040  0.4135 -0.3436 -0.6150
  150SAPE  H10R16529   2.067   4.133   6.134  1.8913  2.2776  1.3873
  150SAPE  H10S16530   2.214   4.144   6.032  0.1304 -0.7953 -3.4233
  150SAPE  C21116531   2.022   4.137   5.929  0.5914  0.0967  0.1555
  150SAPE  H11R16532   1.927   4.088   5.958  0.8993  0.8847  2.8029
  150SAPE  C21216533   2.056   4.137   5.798 -0.3435  0.5184  0.2306
  150SAPE  H12R16534   1.983   4.099   5.725  2.0162 -0.3591 -1.8454
  150SAPE  C21316535   2.188   4.181   5.723  0.4849  0.1163 -0.1338
  150SAPE  H13R16536   2.209   4.118   5.634 -0.0256 -1.1039  0.5817
  150SAPE  H13S16537   2.266   4.166   5.801  0.1942  1.5096  0.4539
  150SAPE  C21416538   2.172   4.321   5.679  1.0351  0.4706 -0.1145
  150SAPE  H14R16539   2.229   4.386   5.746  1.3658  0.3739 -0.2983
  150SAPE  C21516540   2.105   4.368   5.574 -0.4657 -0.5406  0.2194
  150SAPE  H15R16541   2.124   4.476   5.561  0.1114 -0.3964  1.9564
  150SAPE  C21616542   2.017   4.300   5.477  0.4898 -0.1193 -0.7696
  150SAPE  H16R16543   1.932   4.366   5.450 -0.3557 -1.7075 -2.2283
  150SAPE  H16S16544   1.972   4.223   5.544 -1.9461  2.4577  0.7735
  150SAPE  C21716545   2.074   4.245   5.343  0.1271  0.8434  0.2292
  150SAPE  H17R16546   2.002   4.174   5.298 -0.2768 -0.6583  3.0532
  150SAPE  H17S16547   2.171   4.191   5.353 -0.7221 -1.1625 -1.5365
  150SAPE  C21816548   2.102   4.354   5.244 -0.1328 -0.1048  0.2098
  150SAPE  H18R16549   2.178   4.422   5.289 -0.3858 -1.4125  2.7311
  150SAPE  H18S16550   2.009   4.414   5.236 -0.5572 -0.7918 -0.1145
  150SAPE  C21916551   2.143   4.293   5.109 -0.0545  0.0458  0.4570
  150SAPE  H19R16552   2.084   4.200   5.097  1.4617 -1.1255  1.5909
  150SAPE  H19S16553   2.246   4.251   5.103 -0.8528 -1.8167 -2.3918
  150SAPE  C22016554   2.112   4.383   4.985  0.0382  0.5044  0.7885
  150SAPE  H20R16555   2.139   4.488   5.006 -0.1763  0.6199  0.4913
  150SAPE  H20S16556   2.006   4.382   4.952  0.3447  0.4270 -0.2385
  150SAPE  H20T16557   2.164   4.349   4.892 -0.7445 -0.7119  0.7664
  150SAPE   C3316558   2.300   3.711   6.707 -0.0464  0.3993  0.3606
  150SAPE   H3X16559   2.318   3.601   6.708 -0.3527  0.3425  1.8274
  150SAPE   H3Y16560   2.399   3.757   6.725 -0.4654  1.8437 -0.8508
  150SAPE   C3416561   2.251   3.754   6.564  0.5633  0.8183 -0.2178
  150SAPE   H4X16562   2.271   3.864   6.560  1.5942  0.6182 -1.3573
  150SAPE   H4Y16563   2.141   3.741   6.571  0.7366  0.3176  2.4374
  150SAPE   C3516564   2.300   3.691   6.436 -0.4253  0.0763 -0.6003
  150SAPE   H5X16565   2.272   3.583   6.439  0.7680 -0.2370 -0.3210
  150SAPE   H5Y16566   2.411   3.695   6.429 -0.4027  1.2321  0.1531
  150SAPE   C3616567   2.224   3.754   6.317 -0.4204  0.0891 -0.3427
  150SAPE   H6X16568   2.262   3.857   6.301  0.1246  0.0113  0.4050
  150SAPE   H6Y16569   2.114   3.734   6.317 -0.0586 -2.3372  0.4990
  150SAPE   C3716570   2.267   3.687   6.177  0.3560  0.1161 -0.4927
  150SAPE   H7X16571   2.248   3.577   6.180 -0.6264  0.2999  0.8535
  150SAPE   H7Y16572   2.371   3.710   6.147 -0.2368 -1.2455 -4.1376
  150SAPE   C3816573   2.171   3.729   6.069  1.0695 -0.5073  0.2278
  150SAPE   H8X16574   2.168   3.840   6.067  1.2470 -0.4713  1.1891
  150SAPE   H8Y16575   2.066   3.692   6.073  0.2720  1.7123  2.0817
  150SAPE   C3916576   2.211   3.685   5.927 -0.4197  0.1544  0.2219
  150SAPE   H9X16577   2.200   3.578   5.901 -0.6642  0.3376 -0.4311
  150SAPE   H9Y16578   2.317   3.717   5.917 -0.4217  0.7612  1.8333
  150SAPE  C31016579   2.129   3.760   5.830 -0.0496 -0.5169  0.2575
  150SAPE  H10X16580   2.153   3.867   5.850  1.6320 -1.1694  2.1095
  150SAPE  H10Y16581   2.022   3.744   5.852 -0.1994  0.4616  0.2791
  150SAPE  C31116582   2.170   3.728   5.686  0.0793  0.4057  0.0457
  150SAPE  H11X16583   2.163   3.618   5.685  1.5866  0.2914 -0.3141
  150SAPE  H11Y16584   2.278   3.749   5.673  0.1657 -0.5083 -0.8362
  150SAPE  C31216585   2.087   3.806   5.585 -0.4230  0.0700 -0.6782
  150SAPE  H12X16586   2.095   3.911   5.620 -1.4561 -0.5677  1.6395
  150SAPE  H12Y16587   1.981   3.772   5.587 -0.6364  0.7609  1.2289
  150SAPE  C31316588   2.148   3.796   5.448 -0.4788  0.9211 -0.4324
  150SAPE  H13X16589   2.179   3.693   5.422  0.4315  1.8006 -3.2592
  150SAPE  H13Y16590   2.243   3.853   5.440  0.2350 -0.2554 -0.6020
  150SAPE  C31416591   2.045   3.839   5.340  0.0946  0.6939 -0.1435
  150SAPE  H14X16592   1.998   3.931   5.381  0.2179  0.2907  0.9360
  150SAPE  H14Y16593   1.965   3.762   5.327 -0.3345  1.2037 -0.5548
  150SAPE  C31516594   2.092   3.859   5.200 -0.0487  0.5427  0.3105
  150SAPE  H15X16595   2.155   3.775   5.166 -0.2102  0.8574 -0.8017
  150SAPE  H15Y16596   2.160   3.946   5.192  0.4201  0.1979  0.4940
  150SAPE  C31616597   1.962   3.882   5.110 -0.4803 -0.0148 -1.4322
  150SAPE  H16X16598   1.910   3.973   5.146  0.1775 -1.5455  4.6070
  150SAPE  H16Y16599   1.887   3.801   5.129 -1.2373  0.8026 -0.8475
  150SAPE  C31716600   1.988   3.880   4.963 -0.5452 -0.2263 -0.0076
  150SAPE  H17X16601   2.022   3.777   4.938 -2.2837 -0.5158 -1.3314
  150SAPE  H17Y16602   2.060   3.963   4.945 -0.3038 -0.4199  0.0582
  150SAPE  C31816603   1.869   3.908   4.876  0.0794  0.5757  0.2199
  150SAPE  H18X16604   1.825   4.001   4.919  2.2137  2.7332 -1.9469
  150SAPE  H18Y16605   1.796   3.825   4.888  0.4209  0.2982  0.3758
  150SAPE  H18Z16606   1.893   3.929   4.769  0.6965  2.8118  0.7397
  151SAPE     N16607   6.304   2.434   6.753  0.3388  0.0002  0.0018
  151SAPE   HN116608   6.286   2.364   6.678  0.3883 -2.2321  1.9456
  151SAPE   HN216609   6.242   2.413   6.834 -0.7730  1.0785 -0.5280
  151SAPE   HN316610   6.256   2.514   6.706  0.0127 -2.2536 -3.9774
  151SAPE   C1216611   6.457   2.450   6.773  0.1740  0.3804  0.3214
  151SAPE  H12A16612   6.486   2.357   6.826  0.2114 -0.1509 -0.6146
  151SAPE  H12B16613   6.469   2.538   6.840  0.5576  0.5173  0.0747
  151SAPE   C1116614   6.517   2.472   6.643  0.3008  0.1761  0.0587
  151SAPE  H11A16615   6.627   2.483   6.657  0.1763  0.9552  0.4591
  151SAPE  H11B16616   6.483   2.570   6.603  0.8436  1.3224  2.2452
  151SAPE     P16617   6.574   2.249   6.518 -0.0778  0.0345 -0.4344
  151SAPE   O1316618   6.691   2.255   6.608  0.4555  0.0694 -0.4427
  151SAPE   O1416619   6.504   2.121   6.504  0.3990 -0.6025  0.0436
  151SAPE   O1216620   6.477   2.365   6.552 -0.2777 -0.6993  0.3266
  151SAPE   O1116621   6.628   2.286   6.378  0.4489 -0.7061  0.4333
  151SAPE    C116622   6.568   2.378   6.286  0.0901  0.2185  0.6575
  151SAPE    HA16623   6.458   2.387   6.298  0.3856  2.2740  2.4305
  151SAPE    HB16624   6.615   2.479   6.293  0.3891  0.3066 -1.6780
  151SAPE    C216625   6.614   2.341   6.137  0.5772 -0.1482 -0.3018
  151SAPE    HS16626   6.588   2.433   6.081 -0.6215 -0.7288 -0.7596
  151SAPE   O2116627   6.534   2.227   6.096  0.1194  0.2890  0.5010
  151SAPE   C2116628   6.483   2.235   5.974 -0.0269 -0.1124  0.5044
  151SAPE   O2216629   6.505   2.324   5.894  0.0804  0.0509  0.1366
  151SAPE   C2216630   6.407   2.107   5.942  0.4556 -0.0092  0.2238
  151SAPE   H2R16631   6.456   2.012   5.974  0.2990  0.3405  1.5354
  151SAPE   H2S16632   6.315   2.118   6.003  0.1707 -0.5185 -0.1057
  151SAPE    C316633   6.768   2.327   6.110  0.0171  0.0358  0.4089
  151SAPE    HX16634   6.800   2.240   6.171  0.9796  0.3355  0.3500
  151SAPE    HY16635   6.827   2.415   6.146  1.2569  0.1662 -1.7738
  151SAPE   O3116636   6.797   2.305   5.972  0.0568 -0.2399 -0.3570
  151SAPE   C3116637   6.801   2.415   5.894 -0.1623  0.3765  0.1313
  151SAPE   O3216638   6.775   2.526   5.934 -0.9451 -0.5387 -0.4787
  151SAPE   C3216639   6.838   2.371   5.752 -0.1802 -0.5646  0.2826
  151SAPE   H2X16640   6.745   2.340   5.698  0.3696 -1.6487 -0.0749
  151SAPE   H2Y16641   6.899   2.279   5.745  1.4620  0.5154 -0.2430
  151SAPE   C2316642   6.355   2.093   5.794 -0.8689 -0.5250  0.3164
  151SAPE   H3R16643   6.309   2.189   5.762  0.4817  0.4963  1.3085
  151SAPE   H3S16644   6.281   2.010   5.796  0.9331 -2.2330 -0.4777
  151SAPE   C2416645   6.468   2.056   5.697  0.1034 -0.0597 -0.5605
  151SAPE   H4R16646   6.538   1.987   5.749 -1.2148  0.9597  2.8174
  151SAPE   H4S16647   6.529   2.148   5.685 -1.5139  1.2440  0.7250
  151SAPE   C2516648   6.424   1.988   5.571 -0.1403 -0.5105 -0.4697
  151SAPE   H5R16649   6.374   1.892   5.586 -2.7834  0.3432 -2.9350
  151SAPE   C2616650   6.422   2.036   5.445 -0.5725  0.7547  0.6316
  151SAPE   H6R16651   6.394   1.978   5.356  1.6654  0.7043 -0.1120
  151SAPE   C2716652   6.467   2.181   5.411  0.1111  0.0923  0.5177
  151SAPE   H7R16653   6.547   2.177   5.335 -0.6396 -0.0903 -0.2740
  151SAPE   H7S16654   6.516   2.219   5.503 -0.2479  0.4563  0.5607
  151SAPE   C2816655   6.352   2.270   5.372  0.3642  0.5207  0.1375
  151SAPE   H8R16656   6.294   2.317   5.453 -2.9592  0.2259 -1.9027
  151SAPE   C2916657   6.308   2.300   5.250 -0.1636  0.5376  0.3025
  151SAPE   H9R16658   6.221   2.368   5.247 -0.9195 -0.4403 -0.4347
  151SAPE  C21016659   6.349   2.246   5.113 -0.0669 -0.5322 -0.7172
  151SAPE  H10R16660   6.352   2.135   5.119 -0.4513 -0.5874 -1.4497
  151SAPE  H10S16661   6.449   2.287   5.088 -0.1860 -0.1783 -0.6235
  151SAPE  C21116662   6.245   2.275   5.009 -0.4073 -1.1317 -0.0689
  151SAPE  H11R16663   6.171   2.198   4.980 -1.2407 -0.8442  1.1999
  151SAPE  C21216664   6.238   2.401   4.959 -0.4245 -0.3346  0.9501
  151SAPE  H12R16665   6.152   2.429   4.895 -0.4743 -0.9599  0.7322
  151SAPE  C21316666   6.333   2.518   4.986 -0.3251 -0.2575  0.3001
  151SAPE  H13R16667   6.339   2.576   4.891  0.7854 -2.8263 -1.3054
  151SAPE  H13S16668   6.437   2.480   4.995  0.8312  2.3676 -0.8826
  151SAPE  C21416669   6.291   2.613   5.098 -0.2457  1.8638 -0.0792
  151SAPE  H14R16670   6.328   2.585   5.198  0.0984  1.1818 -0.3893
  151SAPE  C21516671   6.215   2.718   5.089  0.2675 -0.1670  0.6659
  151SAPE  H15R16672   6.210   2.780   5.180 -0.4721  2.0187 -0.7927
  151SAPE  C21616673   6.142   2.767   4.966 -0.2988 -0.8398  0.4299
  151SAPE  H16R16674   6.032   2.782   4.964  0.0003  1.9209 -1.3224
  151SAPE  H16S16675   6.155   2.702   4.877 -0.5680 -0.7528  0.3247
  151SAPE  C21716676   6.191   2.905   4.922 -0.2611 -0.1170  0.0540
  151SAPE  H17R16677   6.302   2.906   4.929 -0.2359 -0.1776 -0.3421
  151SAPE  H17S16678   6.172   2.976   5.006  2.0948  1.4137 -0.6062
  151SAPE  C21816679   6.129   2.955   4.793 -0.6479  0.1894  0.3211
  151SAPE  H18R16680   6.018   2.953   4.796 -0.7426  2.8149  1.5085
  151SAPE  H18S16681   6.162   2.905   4.699  1.4948  1.2883  0.4230
  151SAPE  C21916682   6.163   3.103   4.767  0.1002  0.2573 -0.3460
  151SAPE  H19R16683   6.267   3.114   4.728  0.0914  1.2223 -0.1133
  151SAPE  H19S16684   6.165   3.164   4.860 -0.9492  1.1926 -0.9095
  151SAPE  C22016685   6.071   3.171   4.668  0.1386 -0.6918 -0.4792
  151SAPE  H20R16686   6.084   3.281   4.661 -0.6138 -0.6215 -0.9191
  151SAPE  H20S16687   5.964   3.150   4.692 -0.2811  1.3204 -0.4120
  151SAPE  H20T16688   6.086   3.145   4.561 -0.0412  1.0477 -0.9519
  151SAPE   C3316689   6.914   2.490   5.684  0.8113  0.2696 -0.1933
  151SAPE   H3X16690   6.854   2.582   5.698 -0.6026 -0.3073 -2.0784
  151SAPE   H3Y16691   6.899   2.470   5.576  0.3769 -0.0878 -0.0713
  151SAPE   C3416692   7.059   2.493   5.725 -0.0638 -0.2205  0.3163
  151SAPE   H4X16693   7.097   2.389   5.726  0.6691  0.0422  1.1118
  151SAPE   H4Y16694   7.060   2.535   5.828 -1.9103 -0.0115  0.2758
  151SAPE   C3516695   7.139   2.589   5.640 -0.1224  0.2305  0.0152
  151SAPE   H5X16696   7.242   2.575   5.677  0.2197  1.6410 -0.3380
  151SAPE   H5Y16697   7.113   2.693   5.669 -0.6266 -0.3692  1.8508
  151SAPE   C3616698   7.133   2.554   5.488 -0.6003 -0.1181 -0.1286
  151SAPE   H6X16699   7.051   2.609   5.438  0.6934  2.6031  0.5486
  151SAPE   H6Y16700   7.116   2.445   5.471  1.1804 -0.1087 -2.5799
  151SAPE   C3716701   7.265   2.592   5.413 -0.4085 -0.4998 -0.3753
  151SAPE   H7X16702   7.358   2.544   5.452 -0.9247 -1.1724  0.0578
  151SAPE   H7Y16703   7.286   2.700   5.423  0.7125 -0.7185 -0.2018
  151SAPE   C3816704   7.251   2.544   5.268  0.7585  0.6757 -0.0531
  151SAPE   H8X16705   7.185   2.457   5.249 -0.6756  1.4068  1.2428
  151SAPE   H8Y16706   7.348   2.519   5.221  0.9807 -1.2831  1.3294
  151SAPE   C3916707   7.182   2.650   5.186  1.2857 -0.3453 -0.4158
  151SAPE   H9X16708   7.224   2.753   5.189 -2.1477  1.2046 -1.3849
  151SAPE   H9Y16709   7.081   2.676   5.224  0.8674  2.1648 -2.9423
  151SAPE  C31016710   7.169   2.608   5.038  0.0007  0.7500  0.2514
  151SAPE  H10X16711   7.123   2.507   5.037  2.8594 -0.6888 -2.0415
  151SAPE  H10Y16712   7.269   2.596   4.991  0.3548 -1.6213  1.4854
  151SAPE  C31116713   7.079   2.708   4.962  0.8376  0.0477  0.2268
  151SAPE  H11X16714   6.993   2.738   5.026  1.7576  1.1677  0.9750
  151SAPE  H11Y16715   7.048   2.654   4.869  1.7933  0.3372 -0.2776
  151SAPE  C31216716   7.161   2.833   4.929  0.0488 -0.2491  1.3819
  151SAPE  H12X16717   7.255   2.804   4.877 -0.8150  0.1345 -0.4716
  151SAPE  H12Y16718   7.193   2.893   5.016 -0.9042  2.1047  0.1893
  151SAPE  C31316719   7.086   2.932   4.838 -0.0176  0.1706  0.0399
  151SAPE  H13X16720   7.157   3.013   4.813  0.7106 -0.5336 -0.2052
  151SAPE  H13Y16721   7.001   2.974   4.895  0.6018 -0.4437  1.4668
  151SAPE  C31416722   7.012   2.864   4.731  0.4707 -0.3753  0.4803
  151SAPE  H14X16723   6.921   2.813   4.769  1.2393 -0.5910  2.0822
  151SAPE  H14Y16724   7.072   2.776   4.699 -2.2800 -1.9639 -0.6937
  151SAPE  C31516725   6.974   2.947   4.604  0.7350  0.4650  0.4523
  151SAPE  H15X16726   7.065   2.980   4.548  1.7014  0.2352  1.8530
  151SAPE  H15Y16727   6.915   3.034   4.640 -0.2316  0.0364 -0.0628
  151SAPE  C31616728   6.886   2.871   4.497  0.7197  0.8810 -0.4576
  151SAPE  H16X16729   6.812   2.804   4.547  0.0986  1.5635 -0.4504
  151SAPE  H16Y16730   6.955   2.802   4.442  2.1606 -0.6264  2.9270
  151SAPE  C31716731   6.814   2.959   4.398  0.2999  0.7409  0.6432
  151SAPE  H17X16732   6.882   3.042   4.369 -0.2060  1.8293  2.4147
  151SAPE  H17Y16733   6.731   3.016   4.447  1.3802  0.4659  2.9262
  151SAPE  C31816734   6.749   2.891   4.271 -0.4358 -0.1723 -0.1875
  151SAPE  H18X16735   6.693   2.970   4.217  1.0229 -0.3842 -2.0990
  151SAPE  H18Y16736   6.686   2.811   4.316  0.8558  0.7379  3.5859
  151SAPE  H18Z16737   6.824   2.839   4.207 -0.4668 -0.6056  0.1232
  152SAPE     N16738   2.556   2.873   7.208  0.1475  0.2986  0.3698
  152SAPE   HN116739   2.540   2.975   7.200  1.8944  0.7792  2.3387
  152SAPE   HN216740   2.511   2.836   7.295  1.1280 -1.8360  0.0412
  152SAPE   HN316741   2.657   2.870   7.230 -0.0961  1.8493  1.8694
  152SAPE   C1216742   2.508   2.814   7.080  0.2156 -0.3626  0.0573
  152SAPE  H12A16743   2.419   2.872   7.046  0.5298 -0.1069 -0.3442
  152SAPE  H12B16744   2.476   2.711   7.107 -0.8249 -0.2452 -0.6388
  152SAPE   C1116745   2.611   2.810   6.972  0.5768 -0.2572 -0.3318
  152SAPE  H11A16746   2.645   2.916   6.961 -1.0167  0.1380 -1.9479
  152SAPE  H11B16747   2.561   2.783   6.877 -1.6174  3.6574 -0.5198
  152SAPE     P16748   2.742   2.591   6.971  0.0426 -0.1815 -0.0968
  152SAPE   O1316749   2.832   2.532   7.074  0.0010  0.0581  0.2619
  152SAPE   O1416750   2.610   2.532   6.955  0.2325  0.4224  0.3424
  152SAPE   O1216751   2.725   2.744   7.006 -0.6760  0.2583  0.1499
  152SAPE   O1116752   2.819   2.601   6.835 -0.0558  0.2488 -0.9503
  152SAPE    C116753   2.959   2.619   6.816 -0.5605  0.8537 -0.0439
  152SAPE    HA16754   2.970   2.713   6.758  1.6370 -0.3117 -1.6710
  152SAPE    HB16755   3.016   2.641   6.909  0.4579 -1.7467  0.0365
  152SAPE    C216756   3.029   2.499   6.745  0.1319  0.2483  0.5394
  152SAPE    HS16757   3.132   2.529   6.717  0.4626 -2.6817 -1.9446
  152SAPE   O2116758   2.959   2.456   6.628 -0.2514  0.0424 -0.4054
  152SAPE   C2116759   2.975   2.549   6.532  0.0526  0.5445 -0.1442
  152SAPE   O2216760   3.047   2.643   6.539  0.6937 -0.1251 -0.3222
  152SAPE   C2216761   2.898   2.504   6.409  0.4485  0.6118  0.2703
  152SAPE   H2R16762   2.957   2.418   6.371  1.0175  0.8235  0.6471
  152SAPE   H2S16763   2.797   2.470   6.440  0.5635 -1.9864 -1.9004
  152SAPE    C316764   3.037   2.370   6.830  0.0758  0.5866 -0.4817
  152SAPE    HX16765   2.936   2.347   6.871 -0.4135  0.0165 -1.9425
  152SAPE    HY16766   3.109   2.388   6.912 -1.1501  0.8717  0.5640
  152SAPE   O3116767   3.086   2.251   6.755 -0.6764 -0.7511  0.4236
  152SAPE   C3116768   3.221   2.241   6.735 -0.5840 -0.0640 -0.1499
  152SAPE   O3216769   3.308   2.294   6.803  0.5487 -0.3665  0.0473
  152SAPE   C3216770   3.244   2.174   6.607 -0.1394 -0.1557 -0.0814
  152SAPE   H2X16771   3.171   2.092   6.592 -0.5200 -0.1675  1.5809
  152SAPE   H2Y16772   3.339   2.117   6.610  1.7620  2.7548 -0.7649
  152SAPE   C2316773   2.864   2.618   6.317  0.0686  0.0003 -0.6625
  152SAPE   H3R16774   2.958   2.651   6.269 -0.3159  1.3469 -0.5467
  152SAPE   H3S16775   2.827   2.709   6.369  0.0713 -0.8729  0.9204
  152SAPE   C2416776   2.757   2.586   6.212 -0.5646  0.2618 -0.1892
  152SAPE   H4R16777   2.739   2.674   6.147 -3.8912 -0.6976 -0.7657
  152SAPE   H4S16778   2.664   2.560   6.267  0.2162  0.1120  1.1123
  152SAPE   C2516779   2.796   2.467   6.120  0.0007 -0.5974  0.6263
  152SAPE   H5R16780   2.749   2.369   6.141 -0.8248 -0.0218  1.5780
  152SAPE   C2616781   2.890   2.473   6.022  0.7501 -0.0814  0.1863
  152SAPE   H6R16782   2.914   2.376   5.975  0.5122 -0.1613  0.2278
  152SAPE   C2716783   2.967   2.593   5.973  0.2258  0.3713  0.7744
  152SAPE   H7R16784   3.049   2.600   6.048 -1.0399 -0.7104  2.3246
  152SAPE   H7S16785   2.897   2.679   5.977 -0.3552  0.1842 -2.6154
  152SAPE   C2816786   3.018   2.584   5.836 -0.1270 -0.7214  0.4610
  152SAPE   H8R16787   3.127   2.579   5.823 -0.4283 -0.6287 -3.1448
  152SAPE   C2916788   2.937   2.592   5.721  0.0955  0.9685 -0.3207
  152SAPE   H9R16789   2.979   2.595   5.619  0.8392 -0.0177 -0.0540
  152SAPE  C21016790   2.785   2.600   5.711  0.3955 -0.4293 -0.7773
  152SAPE  H10R16791   2.770   2.661   5.619  0.5793 -0.2670 -0.7004
  152SAPE  H10S16792   2.732   2.653   5.792 -0.4071 -1.5013 -0.5780
  152SAPE  C21116793   2.712   2.471   5.693  0.1704  0.6076  0.4909
  152SAPE  H11R16794   2.704   2.404   5.780  0.2981 -2.5785 -1.7523
  152SAPE  C21216795   2.670   2.424   5.570  0.3661 -0.3940 -0.6753
  152SAPE  H12R16796   2.612   2.331   5.560  2.2363 -1.8178  0.9078
  152SAPE  C21316797   2.695   2.490   5.437  0.2803 -0.0150 -0.1490
  152SAPE  H13R16798   2.800   2.525   5.434  1.5499 -3.5122 -1.0850
  152SAPE  H13S16799   2.636   2.584   5.437  2.0668  1.1747  1.2092
  152SAPE  C21416800   2.666   2.401   5.316 -0.0845 -0.2386 -1.0527
  152SAPE  H14R16801   2.743   2.325   5.296 -0.8899 -1.0598 -1.0621
  152SAPE  C21516802   2.559   2.423   5.235 -0.3502  0.6298 -0.1616
  152SAPE  H15R16803   2.556   2.358   5.147 -0.3463 -1.1887  1.1268
  152SAPE  C21616804   2.446   2.522   5.253  0.3420 -0.3583  0.2146
  152SAPE  H16R16805   2.487   2.618   5.293 -1.6884  0.5446  0.2514
  152SAPE  H16S16806   2.382   2.474   5.330  1.6330 -2.6818 -0.0624
  152SAPE  C21716807   2.340   2.551   5.139  0.1023  0.0928  0.1281
  152SAPE  H17R16808   2.247   2.578   5.194 -0.8512 -1.5522 -0.5943
  152SAPE  H17S16809   2.315   2.453   5.093  0.8178  0.5353 -1.2383
  152SAPE  C21816810   2.387   2.661   5.048  0.2487  0.2663 -0.3182
  152SAPE  H18R16811   2.480   2.618   5.003  0.5572  0.1901  0.3807
  152SAPE  H18S16812   2.425   2.752   5.098  1.8832  0.4172 -1.7311
  152SAPE  C21916813   2.292   2.700   4.934 -0.0979 -0.8152  0.6158
  152SAPE  H19R16814   2.203   2.738   4.989 -0.5883 -1.7202  0.4605
  152SAPE  H19S16815   2.260   2.608   4.881  0.3663 -0.2887 -0.6131
  152SAPE  C22016816   2.356   2.795   4.830 -0.1428  0.0885 -0.0662
  152SAPE  H20R16817   2.398   2.884   4.882 -1.9490  0.7921  0.2670
  152SAPE  H20S16818   2.274   2.836   4.766  0.2482  2.1929  0.7206
  152SAPE  H20T16819   2.427   2.732   4.773  0.4287  1.7965 -1.3158
  152SAPE   C3316820   3.241   2.280   6.492 -0.1743 -0.0549  0.4803
  152SAPE   H3X16821   3.302   2.370   6.514  0.2615 -0.1684 -0.2317
  152SAPE   H3Y16822   3.131   2.296   6.481 -0.4826 -1.0304  1.8361
  152SAPE   C3416823   3.305   2.224   6.368  0.1132  0.8084  0.0208
  152SAPE   H4X16824   3.254   2.126   6.361  0.9215  0.4129 -0.3780
  152SAPE   H4Y16825   3.413   2.200   6.383 -0.4163 -0.4288  2.4579
  152SAPE   C3516826   3.285   2.301   6.235  0.6849  0.3452 -0.1638
  152SAPE   H5X16827   3.175   2.311   6.219  0.4376 -0.2542  1.0405
  152SAPE   H5Y16828   3.314   2.232   6.153 -2.6463 -1.6770  0.1457
  152SAPE   C3616829   3.372   2.430   6.220  0.2691 -0.4019  0.6391
  152SAPE   H6X16830   3.360   2.516   6.288  1.8862  1.5886 -1.4366
  152SAPE   H6Y16831   3.335   2.467   6.122  0.9883  2.8461  1.4918
  152SAPE   C3716832   3.515   2.395   6.192 -0.0351  0.6931 -0.3141
  152SAPE   H7X16833   3.524   2.323   6.107 -1.1629 -0.3929  0.4534
  152SAPE   H7Y16834   3.569   2.350   6.278 -0.4751  0.9783  0.1186
  152SAPE   C3816835   3.586   2.528   6.154  0.0164 -0.2036 -0.0856
  152SAPE   H8X16836   3.694   2.503   6.154  0.0950  0.1164 -0.6842
  152SAPE   H8Y16837   3.563   2.606   6.230 -0.0810 -0.7710  0.4781
  152SAPE   C3916838   3.543   2.582   6.020 -0.6965 -0.0713  0.6701
  152SAPE   H9X16839   3.611   2.669   6.007 -2.9944  1.5069 -1.8655
  152SAPE   H9Y16840   3.442   2.628   6.018  0.5735  3.1860  2.9197
  152SAPE  C31016841   3.566   2.482   5.902  0.5998 -0.9452  0.2501
  152SAPE  H10X16842   3.497   2.395   5.903 -0.1462 -0.5064 -3.1406
  152SAPE  H10Y16843   3.671   2.449   5.917  1.6100  0.4339 -2.9894
  152SAPE  C31116844   3.552   2.559   5.767  0.5684  0.1325  0.0599
  152SAPE  H11X16845   3.580   2.491   5.683 -0.0077  1.6350 -1.4051
  152SAPE  H11Y16846   3.617   2.649   5.770 -0.6721  1.0243  1.1277
  152SAPE  C31216847   3.412   2.600   5.729  0.3676  0.3982 -0.1504
  152SAPE  H12X16848   3.369   2.682   5.792 -0.2257  0.6409 -0.8576
  152SAPE  H12Y16849   3.350   2.510   5.749 -1.9334  2.4015  2.6481
  152SAPE  C31316850   3.387   2.636   5.585  0.3868 -0.1197  0.2963
  152SAPE  H13X16851   3.435   2.559   5.521  0.2194  1.2985 -1.6346
  152SAPE  H13Y16852   3.429   2.736   5.560  0.9208 -0.9310 -2.4233
  152SAPE  C31416853   3.240   2.654   5.550 -0.3195 -0.1420 -0.2246
  152SAPE  H14X16854   3.205   2.749   5.595  0.1484 -0.8695  1.7800
  152SAPE  H14Y16855   3.179   2.572   5.594 -0.6589  1.4476  2.5065
  152SAPE  C31516856   3.211   2.643   5.394 -1.2576 -0.0950 -0.0108
  152SAPE  H15X16857   3.235   2.543   5.353 -1.0813 -0.2827  0.5535
  152SAPE  H15Y16858   3.281   2.715   5.345 -0.9004 -1.0873 -1.0161
  152SAPE  C31616859   3.077   2.669   5.343  0.6976 -0.3517 -0.4821
  152SAPE  H16X16860   3.052   2.771   5.378 -0.9321 -0.3145 -1.6295
  152SAPE  H16Y16861   3.004   2.598   5.388  1.2156  1.2425  3.1997
  152SAPE  C31716862   3.078   2.665   5.190 -0.4946 -0.4916 -0.5136
  152SAPE  H17X16863   3.111   2.563   5.161  1.4357  0.2818 -1.1659
  152SAPE  H17Y16864   3.159   2.735   5.161 -2.6733  1.8220 -1.4044
  152SAPE  C31816865   2.948   2.706   5.123 -0.4735  0.4581  0.8240
  152SAPE  H18X16866   2.867   2.634   5.148 -0.5934 -0.3698 -1.6609
  152SAPE  H18Y16867   2.963   2.698   5.013  0.6536  1.8027  0.8452
  152SAPE  H18Z16868   2.921   2.809   5.156  1.3657  0.6538  1.8850
  153SAPE     N16869   1.209   3.009   6.789 -0.2136 -0.6017  0.1704
  153SAPE   HN116870   1.240   3.109   6.785 -0.0014 -0.6897 -0.4331
  153SAPE   HN216871   1.279   2.958   6.731  2.4034 -1.1613  3.5227
  153SAPE   HN316872   1.114   2.998   6.749 -0.5807  1.5927  0.3148
  153SAPE   C1216873   1.204   2.970   6.933 -0.0058 -0.2562  0.4146
  153SAPE  H12A16874   1.161   2.868   6.922 -1.3589  0.5048 -2.7086
  153SAPE  H12B16875   1.142   3.039   6.995  0.6190 -1.1905  2.1255
  153SAPE   C1116876   1.345   2.981   6.989  0.7861  0.8591 -0.0305
  153SAPE  H11A16877   1.351   2.944   7.093  0.3044 -1.6260 -0.8368
  153SAPE  H11B16878   1.357   3.091   6.999  2.4536  0.7943 -0.9988
  153SAPE     P16879   1.587   2.965   6.915 -0.3782 -0.0619 -0.2634
  153SAPE   O1316880   1.636   2.958   7.055  0.4208  0.0524  0.3097
  153SAPE   O1416881   1.672   2.888   6.822 -0.1592  0.2888 -0.3482
  153SAPE   O1216882   1.441   2.916   6.907 -0.4448 -0.1327 -0.3057
  153SAPE   O1116883   1.575   3.118   6.880 -0.2467  0.1533 -0.1851
  153SAPE    C116884   1.627   3.181   6.769 -0.2576  0.3989 -0.3884
  153SAPE    HA16885   1.624   3.290   6.793 -1.9323 -0.1862  2.5392
  153SAPE    HB16886   1.730   3.146   6.745 -0.3706  0.4912 -1.0306
  153SAPE    C216887   1.545   3.154   6.637 -0.4943 -0.1184 -0.6716
  153SAPE    HS16888   1.439   3.171   6.668  0.1854 -0.2051  1.8797
  153SAPE   O2116889   1.578   3.024   6.594 -0.6377 -0.8042  0.5246
  153SAPE   C2116890   1.484   2.948   6.541  0.1622  0.1771 -0.3261
  153SAPE   O2216891   1.364   2.949   6.560  0.3487  0.0984  0.3294
  153SAPE   C2216892   1.548   2.839   6.455 -0.4720 -0.4575  0.7078
  153SAPE   H2R16893   1.641   2.820   6.513  0.4175  1.2150 -0.1038
  153SAPE   H2S16894   1.479   2.752   6.455  0.8638 -1.5384  0.2785
  153SAPE    C316895   1.581   3.255   6.520 -0.5020 -0.5125 -0.3837
  153SAPE    HX16896   1.690   3.277   6.520 -0.4761 -0.4485  1.3889
  153SAPE    HY16897   1.542   3.351   6.561  1.1906 -0.4418  1.2072
  153SAPE   O3116898   1.535   3.223   6.392 -0.4627  0.0691  0.5814
  153SAPE   C3116899   1.416   3.274   6.357 -0.4344 -0.0806 -0.3246
  153SAPE   O3216900   1.340   3.340   6.425  0.2278 -0.2210  0.2329
  153SAPE   C3216901   1.402   3.261   6.208  0.0109 -0.7058 -0.6960
  153SAPE   H2X16902   1.348   3.166   6.191  0.4981 -1.5153  1.8285
  153SAPE   H2Y16903   1.495   3.255   6.148  0.2197 -1.2201 -0.3268
  153SAPE   C2316904   1.587   2.886   6.317 -0.0691 -0.5254  0.0546
  153SAPE   H3R16905   1.665   2.965   6.322  0.8649 -1.4105 -0.0376
  153SAPE   H3S16906   1.503   2.940   6.269  0.6771  0.5113 -0.1242
  153SAPE   C2416907   1.657   2.786   6.224  0.3823  0.1829  0.8111
  153SAPE   H4R16908   1.600   2.691   6.226  0.6823 -0.1099 -1.7041
  153SAPE   H4S16909   1.755   2.761   6.271  0.3765 -0.9197  0.2757
  153SAPE   C2516910   1.677   2.846   6.088 -0.0204 -0.0421 -0.2054
  153SAPE   H5R16911   1.776   2.894   6.081 -1.3299  2.9915  0.4644
  153SAPE   C2616912   1.590   2.868   5.987  0.4374  0.3300 -0.0816
  153SAPE   H6R16913   1.625   2.909   5.891  1.3758 -0.1136  0.0623
  153SAPE   C2716914   1.439   2.842   5.991  0.4090  0.8148  0.0760
  153SAPE   H7R16915   1.415   2.779   6.079  0.3462  0.3741 -0.2526
  153SAPE   H7S16916   1.427   2.773   5.905 -0.8754 -0.6137  1.3444
  153SAPE   C2816917   1.353   2.958   5.951 -0.7413  0.9456 -0.8524
  153SAPE   H8R16918   1.301   2.992   6.042  1.5809 -0.3038  1.0739
  153SAPE   C2916919   1.323   3.021   5.839 -1.1887 -0.6219  0.3254
  153SAPE   H9R16920   1.240   3.093   5.831 -1.1974 -0.7363 -0.7924
  153SAPE  C21016921   1.389   2.996   5.705 -0.2255  0.0042  0.1868
  153SAPE  H10R16922   1.339   2.904   5.666 -0.1322 -0.0464  0.1866
  153SAPE  H10S16923   1.493   2.960   5.717  0.7882  1.8397 -2.1903
  153SAPE  C21116924   1.372   3.113   5.605 -0.1893 -0.8447  0.6524
  153SAPE  H11R16925   1.445   3.196   5.597  0.6197 -1.7049 -3.2049
  153SAPE  C21216926   1.281   3.121   5.503  0.5325 -0.1661  0.2937
  153SAPE  H12R16927   1.267   3.208   5.436 -0.4110 -1.4535 -1.2612
  153SAPE  C21316928   1.170   3.019   5.474 -0.2667  0.2672 -0.1880
  153SAPE  H13R16929   1.069   3.065   5.472 -0.1045  0.6542 -3.2135
  153SAPE  H13S16930   1.158   2.956   5.565  0.2587 -0.4469 -0.6070
  153SAPE  C21416931   1.190   2.928   5.353  0.0862  0.5063 -0.1489
  153SAPE  H14R16932   1.278   2.862   5.362 -0.6264 -0.3792  0.4486
  153SAPE  C21516933   1.122   2.933   5.240  0.7508  0.1533  0.4616
  153SAPE  H15R16934   1.152   2.879   5.149 -0.0871 -0.1308  0.3440
  153SAPE  C21616935   1.001   3.029   5.219  0.5959  0.0635  0.4471
  153SAPE  H16R16936   0.983   3.108   5.295 -0.9562  1.4743 -1.3073
  153SAPE  H16S16937   0.904   2.975   5.221  1.0117 -0.7878 -0.6897
  153SAPE  C21716938   1.015   3.091   5.075  0.2796  0.8496  0.1011
  153SAPE  H17R16939   0.919   3.133   5.039 -1.3689 -2.0016  0.7819
  153SAPE  H17S16940   1.020   3.004   5.006  0.8255  1.1441 -0.2333
  153SAPE  C21816941   1.123   3.191   5.060 -0.4256  0.1441  0.1617
  153SAPE  H18R16942   1.208   3.151   5.119  0.2551  0.0843 -0.8429
  153SAPE  H18S16943   1.093   3.288   5.103 -0.1499  1.8606 -3.1688
  153SAPE  C21916944   1.170   3.219   4.924 -0.3376 -0.1410  0.2332
  153SAPE  H19R16945   1.202   3.120   4.883  0.9699 -0.4544  1.8709
  153SAPE  H19S16946   1.255   3.290   4.929 -2.5279  2.6264  0.4887
  153SAPE  C22016947   1.074   3.282   4.827 -0.0419  0.3028 -0.2718
  153SAPE  H20R16948   1.028   3.376   4.865  0.2642  1.0964 -1.7815
  153SAPE  H20S16949   0.990   3.212   4.810  1.6659 -1.3234 -2.6839
  153SAPE  H20T16950   1.126   3.291   4.729 -0.1740  0.9690 -0.2902
  153SAPE   C3316951   1.308   3.364   6.140  0.0757  0.1598 -0.4543
  153SAPE   H3X16952   1.360   3.463   6.138  0.8790 -0.2571 -0.5117
  153SAPE   H3Y16953   1.214   3.375   6.198  0.3701  2.8634 -0.3455
  153SAPE   C3416954   1.281   3.349   5.988  0.0409  0.1867 -0.0381
  153SAPE   H4X16955   1.220   3.258   5.966  1.4492 -0.3093 -2.1882
  153SAPE   H4Y16956   1.366   3.329   5.919  1.1503 -1.0745  1.6276
  153SAPE   C3516957   1.199   3.469   5.937  0.4531 -0.1497 -0.4837
  153SAPE   H5X16958   1.164   3.534   6.020 -1.7881 -0.2421 -1.2854
  153SAPE   H5Y16959   1.111   3.434   5.878 -0.4379  1.8257 -0.4326
  153SAPE   C3616960   1.258   3.564   5.831  0.0733  0.1310  0.3091
  153SAPE   H6X16961   1.256   3.520   5.729  1.8641 -0.1511  0.3705
  153SAPE   H6Y16962   1.362   3.590   5.860  0.6023 -0.9694 -0.5594
  153SAPE   C3716963   1.174   3.692   5.817  0.7487 -0.6268  0.2852
  153SAPE   H7X16964   1.150   3.735   5.916  2.8029  0.7549  0.2415
  153SAPE   H7Y16965   1.074   3.681   5.769  0.5138 -1.3809  0.9213
  153SAPE   C3816966   1.241   3.807   5.734  0.0367  0.4839  0.6207
  153SAPE   H8X16967   1.263   3.748   5.643 -0.2826  0.3482  0.6316
  153SAPE   H8Y16968   1.342   3.835   5.774 -0.2049  0.0037  1.6101
  153SAPE   C3916969   1.142   3.921   5.705 -0.1162 -0.1168  0.3144
  153SAPE   H9X16970   1.111   3.962   5.804  2.3210 -1.1471  1.5772
  153SAPE   H9Y16971   1.056   3.866   5.661  0.4022 -0.1491 -0.6726
  153SAPE  C31016972   1.195   4.026   5.614 -0.7348  0.3110  0.1739
  153SAPE  H10X16973   1.295   4.054   5.654  0.3192  1.5988 -3.0965
  153SAPE  H10Y16974   1.134   4.118   5.623 -1.2297  0.0890 -0.8289
  153SAPE  C31116975   1.199   3.997   5.467 -0.0988  0.1722  0.6822
  153SAPE  H11X16976   1.095   3.986   5.431 -0.7732  0.8273  2.3009
  153SAPE  H11Y16977   1.256   3.902   5.462  0.6213  0.6233  0.2718
  153SAPE  C31216978   1.272   4.099   5.381 -0.0908 -0.4443  0.3299
  153SAPE  H12X16979   1.375   4.114   5.419  1.5445 -3.8542 -2.1966
  153SAPE  H12Y16980   1.219   4.194   5.361 -0.7621 -0.7444  0.6528
  153SAPE  C31316981   1.289   4.033   5.241  0.3385  0.3498  0.1986
  153SAPE  H13X16982   1.209   3.956   5.232  1.1763 -0.4088 -1.1328
  153SAPE  H13Y16983   1.382   3.974   5.231  0.2138  0.4637 -2.6045
  153SAPE  C31416984   1.265   4.120   5.116 -0.1148 -0.6981 -0.1685
  153SAPE  H14X16985   1.331   4.209   5.114 -1.2074  0.1220 -1.7854
  153SAPE  H14Y16986   1.165   4.167   5.131 -0.2983 -0.2604 -2.4321
  153SAPE  C31516987   1.274   4.047   4.980 -0.1416 -0.0320 -0.3189
  153SAPE  H15X16988   1.189   3.976   4.977 -1.1809  1.1892 -0.4027
  153SAPE  H15Y16989   1.363   3.981   4.984  0.5653  0.9288  0.5828
  153SAPE  C31616990   1.264   4.144   4.867  0.3135  0.5639 -0.0870
  153SAPE  H16X16991   1.257   4.082   4.775 -0.6171 -0.2271  0.4992
  153SAPE  H16Y16992   1.359   4.201   4.859  1.1835 -0.7853  0.1988
  153SAPE  C31716993   1.151   4.246   4.874  0.4503  1.3514  0.3804
  153SAPE  H17X16994   1.142   4.298   4.971 -2.1481  0.1265  0.8914
  153SAPE  H17Y16995   1.053   4.194   4.876  0.7682  0.7776  1.7349
  153SAPE  C31816996   1.143   4.345   4.757  0.5994  0.3452 -0.4831
  153SAPE  H18X16997   1.064   4.421   4.774  0.8782  0.4468  0.3949
  153SAPE  H18Y16998   1.106   4.290   4.668  1.6900 -0.0132 -0.7303
  153SAPE  H18Z16999   1.245   4.388   4.747  0.6677  0.0914 -0.8913
  154SAPE     N17000   6.445   1.350   6.507  0.6240  0.0098 -0.1743
  154SAPE   HN117001   6.464   1.248   6.514 -1.0220 -0.2349  1.9197
  154SAPE   HN217002   6.511   1.402   6.568 -0.4948  0.1925  0.9219
  154SAPE   HN317003   6.354   1.380   6.546  0.0322 -0.7436 -0.9228
  154SAPE   C1217004   6.462   1.404   6.369  1.4104 -0.0665 -0.1257
  154SAPE  H12A17005   6.464   1.515   6.375 -1.0197  0.4435 -4.4883
  154SAPE  H12B17006   6.372   1.378   6.309  2.1926  1.5156 -2.0622
  154SAPE   C1117007   6.578   1.347   6.292  0.0639  0.1868 -0.4241
  154SAPE  H11A17008   6.584   1.389   6.189 -0.1998  0.6694 -0.2447
  154SAPE  H11B17009   6.573   1.236   6.290  0.8302  0.1525 -0.5639
  154SAPE     P17010   6.808   1.325   6.419  0.1097  0.4212  0.1216
  154SAPE   O1317011   6.879   1.423   6.502 -0.6616  0.1272  0.0743
  154SAPE   O1417012   6.748   1.214   6.493 -0.0532  0.4850  0.4480
  154SAPE   O1217013   6.700   1.403   6.345  0.0199 -0.1932 -0.2773
  154SAPE   O1117014   6.903   1.276   6.304 -0.5627  0.1699  0.1579
  154SAPE    C117015   6.879   1.277   6.163  0.5614 -0.1584 -0.2267
  154SAPE    HA17016   6.952   1.217   6.105  2.9107  2.0106  0.3342
  154SAPE    HB17017   6.779   1.229   6.150  0.4788 -0.0838  0.1497
  154SAPE    C217018   6.890   1.419   6.096 -0.1875 -0.1873  0.5279
  154SAPE    HS17019   6.818   1.490   6.141 -0.6391 -1.3632  1.7513
  154SAPE   O2117020   6.885   1.398   5.953  0.3502 -0.3136 -0.9418
  154SAPE   C2117021   6.759   1.402   5.911  0.0984 -0.8223 -0.2437
  154SAPE   O2217022   6.663   1.429   5.980  0.0218 -0.2764  0.0320
  154SAPE   C2217023   6.749   1.372   5.762 -0.4099 -0.0165  1.0079
  154SAPE   H2R17024   6.848   1.382   5.711 -2.6420  0.2632 -3.8051
  154SAPE   H2S17025   6.716   1.269   5.741  1.7675 -0.2735 -1.8510
  154SAPE    C317026   7.028   1.477   6.130 -0.1448  0.1382  0.7226
  154SAPE    HX17027   7.094   1.388   6.120 -2.3308 -1.8507  2.7777
  154SAPE    HY17028   7.022   1.510   6.236 -0.3009  0.5967  0.5709
  154SAPE   O3117029   7.067   1.597   6.048 -0.0486 -0.4255  0.1388
  154SAPE   C3117030   7.194   1.607   6.045 -0.3824 -0.6865  0.7017
  154SAPE   O3217031   7.274   1.537   6.107  0.3924  0.0433 -0.2359
  154SAPE   C3217032   7.231   1.714   5.931 -0.1216 -0.0935 -0.1837
  154SAPE   H2X17033   7.316   1.772   5.973 -0.5451  0.0965  0.4272
  154SAPE   H2Y17034   7.145   1.784   5.927 -0.9605 -0.9417  1.8332
  154SAPE   C2317035   6.658   1.464   5.678  0.2979 -0.2155  0.2807
  154SAPE   H3R17036   6.696   1.568   5.686 -1.1662  0.4010 -0.3678
  154SAPE   H3S17037   6.559   1.452   5.727 -1.7129 -1.2288 -3.6169
  154SAPE   C2417038   6.651   1.423   5.524 -0.8572 -0.0634  0.3273
  154SAPE   H4R17039   6.611   1.322   5.500  1.6586 -1.0312 -0.1160
  154SAPE   H4S17040   6.759   1.418   5.498 -1.3596 -0.9484 -1.8221
  154SAPE   C2517041   6.601   1.532   5.434  0.2557  0.2339 -0.3729
  154SAPE   H5R17042   6.634   1.631   5.468  0.3709  0.7008 -1.7882
  154SAPE   C2617043   6.514   1.527   5.329 -0.8689  0.1910  0.1247
  154SAPE   H6R17044   6.487   1.615   5.269  0.0076 -0.6332 -1.5658
  154SAPE   C2717045   6.461   1.402   5.264 -0.5389  0.2343 -0.0362
  154SAPE   H7R17046   6.541   1.326   5.254 -1.5553 -0.9477  0.5563
  154SAPE   H7S17047   6.433   1.435   5.162 -0.5460 -2.0835 -0.8348
  154SAPE   C2817048   6.343   1.360   5.349 -0.1691  0.3560  0.0556
  154SAPE   H8R17049   6.359   1.322   5.451 -1.4437  1.6768  0.7747
  154SAPE   C2917050   6.217   1.324   5.307 -0.1819 -0.4187  0.1372
  154SAPE   H9R17051   6.141   1.311   5.385 -0.5115  0.4833 -0.0224
  154SAPE  C21017052   6.161   1.340   5.169  0.0268 -0.8224 -0.0494
  154SAPE  H10R17053   6.240   1.290   5.108  0.6489  0.0953 -0.0113
  154SAPE  H10S17054   6.149   1.444   5.131 -1.0958 -1.4581 -1.5679
  154SAPE  C21117055   6.026   1.277   5.140 -0.6633  0.5447 -0.5128
  154SAPE  H11R17056   6.033   1.169   5.122  2.1869  0.4348  0.7138
  154SAPE  C21217057   5.910   1.334   5.105  0.2391  0.0065 -0.0420
  154SAPE  H12R17058   5.814   1.280   5.109  0.7047 -0.8003  0.5687
  154SAPE  C21317059   5.879   1.480   5.087  0.3369 -0.7609  0.1589
  154SAPE  H13R17060   5.968   1.538   5.120 -0.6894  0.5003  0.7888
  154SAPE  H13S17061   5.794   1.510   5.152 -2.1676 -2.3780 -2.1443
  154SAPE  C21417062   5.849   1.511   4.942 -0.3062 -0.0945  0.1789
  154SAPE  H14R17063   5.865   1.420   4.883 -1.9650 -0.8003  0.7330
  154SAPE  C21517064   5.794   1.618   4.894  0.0612 -0.3843 -0.8626
  154SAPE  H15R17065   5.770   1.619   4.787 -3.3890  0.0704 -0.2111
  154SAPE  C21617066   5.741   1.742   4.969  0.3066  0.5812 -0.4387
  154SAPE  H16R17067   5.723   1.707   5.073  0.8206  1.3647 -0.0736
  154SAPE  H16S17068   5.639   1.776   4.940  0.8959  2.4964 -0.3936
  154SAPE  C21717069   5.830   1.864   4.966  0.6515 -0.0923  0.9713
  154SAPE  H17R17070   5.934   1.839   4.994  0.1950 -1.5706  1.4595
  154SAPE  H17S17071   5.780   1.936   5.035 -3.4942 -1.2743 -0.4793
  154SAPE  C21817072   5.840   1.932   4.829  0.7133 -0.0152  0.5858
  154SAPE  H18R17073   5.733   1.943   4.803  0.7488 -1.5589 -0.3433
  154SAPE  H18S17074   5.892   1.861   4.760  1.6010  0.9389  0.2458
  154SAPE  C21917075   5.890   2.071   4.836 -0.0273  0.7021 -0.7623
  154SAPE  H19R17076   5.999   2.067   4.862 -0.0436 -0.3866 -0.8224
  154SAPE  H19S17077   5.828   2.114   4.918 -0.5571 -1.7263  0.1971
  154SAPE  C22017078   5.878   2.128   4.700 -0.1620 -0.0356  0.4070
  154SAPE  H20R17079   5.923   2.230   4.704 -0.7112  0.1929  1.0280
  154SAPE  H20S17080   5.772   2.139   4.668 -0.0258  4.8049  0.8529
  154SAPE  H20T17081   5.932   2.066   4.626 -1.8144 -0.8713 -0.1448
  154SAPE   C3317082   7.259   1.641   5.799  0.0579  0.4669 -0.1666
  154SAPE   H3X17083   7.334   1.562   5.819 -1.5534 -0.6143  2.1034
  154SAPE   H3Y17084   7.316   1.703   5.726  0.2165  2.7521  1.7748
  154SAPE   C3417085   7.134   1.583   5.727  0.6400 -0.1708 -0.5453
  154SAPE   H4X17086   7.042   1.639   5.757 -0.2159 -0.9863 -1.5961
  154SAPE   H4Y17087   7.114   1.480   5.764  0.1671 -0.1409 -0.7103
  154SAPE   C3517088   7.147   1.583   5.580 -0.2869  0.5128  0.3304
  154SAPE   H5X17089   7.228   1.525   5.531 -0.6636 -1.4265  1.8916
  154SAPE   H5Y17090   7.139   1.684   5.533 -1.6860  0.1146 -0.3701
  154SAPE   C3617091   7.026   1.526   5.522  0.5166 -0.0537  0.2500
  154SAPE   H6X17092   6.934   1.583   5.548  0.9684  2.1089 -2.4766
  154SAPE   H6Y17093   7.019   1.420   5.556  0.1701  0.1017  0.6736
  154SAPE   C3717094   7.013   1.531   5.361  0.1768  0.2180 -0.3530
  154SAPE   H7X17095   6.953   1.443   5.332  3.2368 -2.2357  0.2153
  154SAPE   H7Y17096   7.108   1.517   5.304  2.4000  1.6324  2.7232
  154SAPE   C3817097   6.988   1.677   5.315  0.1219  0.0136 -0.3051
  154SAPE   H8X17098   7.079   1.737   5.336 -2.1321  2.2378  4.9802
  154SAPE   H8Y17099   6.900   1.715   5.372  0.3687 -0.2780  0.2724
  154SAPE   C3917100   6.946   1.683   5.163 -0.1900 -0.2779  0.0281
  154SAPE   H9X17101   6.994   1.592   5.121  0.1610  0.2992 -0.8551
  154SAPE   H9Y17102   6.996   1.764   5.107 -0.5438 -0.5904 -0.7462
  154SAPE  C31017103   6.789   1.682   5.150 -0.0195 -0.2781  0.4668
  154SAPE  H10X17104   6.755   1.771   5.207  1.4666 -0.0783  1.0629
  154SAPE  H10Y17105   6.755   1.593   5.208  0.3811  0.4189  1.8138
  154SAPE  C31117106   6.728   1.691   5.018 -0.1841 -0.1486  0.9262
  154SAPE  H11X17107   6.794   1.763   4.965 -0.9190 -0.7228 -0.8050
  154SAPE  H11Y17108   6.626   1.735   5.026 -0.1831  0.3460 -1.2938
  154SAPE  C31217109   6.746   1.571   4.933 -0.2195  0.3708  0.3487
  154SAPE  H12X17110   6.849   1.528   4.940 -0.3383  0.1544  0.8327
  154SAPE  H12Y17111   6.740   1.609   4.829  0.0302  3.5458  1.4071
  154SAPE  C31317112   6.645   1.454   4.937 -0.1230  0.3234 -0.0539
  154SAPE  H13X17113   6.542   1.492   4.949  0.5054  1.3442  2.9851
  154SAPE  H13Y17114   6.674   1.399   5.029  1.4587  1.0372 -0.0903
  154SAPE  C31417115   6.653   1.369   4.806 -0.0126 -0.1104 -0.6494
  154SAPE  H14X17116   6.604   1.271   4.823 -1.5529  0.9413  1.4884
  154SAPE  H14Y17117   6.761   1.362   4.782 -0.2439 -1.1121 -1.4729
  154SAPE  C31517118   6.571   1.434   4.689 -0.1087 -0.0486  0.5799
  154SAPE  H15X17119   6.610   1.536   4.673 -1.9789  1.2615  3.4911
  154SAPE  H15Y17120   6.469   1.448   4.731 -0.3353  0.2021 -0.0402
  154SAPE  C31617121   6.575   1.356   4.563  0.0666  0.0683 -0.4583
  154SAPE  H16X17122   6.520   1.410   4.483  0.5757 -0.0741 -0.9136
  154SAPE  H16Y17123   6.527   1.261   4.596  1.3079 -1.7565 -3.4788
  154SAPE  C31717124   6.712   1.317   4.513 -0.2209  0.7550 -0.4826
  154SAPE  H17X17125   6.770   1.278   4.600  0.6231  2.1350 -0.3814
  154SAPE  H17Y17126   6.774   1.403   4.478  0.6532 -0.1398 -1.1864
  154SAPE  C31817127   6.712   1.215   4.400  0.2704 -0.3750  0.0879
  154SAPE  H18X17128   6.653   1.250   4.312  0.5433  1.5889  0.6479
  154SAPE  H18Y17129   6.667   1.119   4.432  0.8220 -0.3207  1.0491
  154SAPE  H18Z17130   6.817   1.194   4.371 -0.0045 -3.2116  0.8282
  155SAPE     N17131   0.153   1.568   6.629  0.1880  0.1735  0.1543
  155SAPE   HN117132   0.092   1.541   6.549  0.1169  1.2997 -0.1894
  155SAPE   HN217133   0.110   1.525   6.713  0.7049 -0.5881  0.0465
  155SAPE   HN317134   0.150   1.672   6.628  1.5877  0.2938 -2.3930
  155SAPE   C1217135   0.299   1.533   6.621 -0.1005 -0.0879  1.0146
  155SAPE  H12A17136   0.298   1.425   6.596 -0.0755 -0.3112  1.9171
  155SAPE  H12B17137   0.333   1.538   6.727  2.1923 -0.7894  0.3611
  155SAPE   C1117138   0.365   1.614   6.510 -0.0758  0.2973  0.3857
  155SAPE  H11A17139   0.336   1.587   6.407 -0.9895 -2.3493  1.2669
  155SAPE  H11B17140   0.474   1.592   6.518 -0.7343 -3.1913  1.5918
  155SAPE     P17141   0.248   1.831   6.440 -0.3301 -0.0858 -0.3654
  155SAPE   O1317142   0.117   1.759   6.431 -0.1587 -0.2428  0.0104
  155SAPE   O1417143   0.237   1.968   6.492  0.4515  0.1304  0.2805
  155SAPE   O1217144   0.340   1.756   6.533 -0.5056  0.0962 -0.2883
  155SAPE   O1117145   0.318   1.821   6.300  0.5370 -0.0463  0.4985
  155SAPE    C117146   0.326   1.945   6.221  0.5440  0.3438 -0.2353
  155SAPE    HA17147   0.371   2.022   6.287 -1.0588  0.0034  1.3053
  155SAPE    HB17148   0.391   1.930   6.131 -0.0047  1.0821 -0.7687
  155SAPE    C217149   0.185   1.997   6.176  0.0276 -0.0297 -0.3094
  155SAPE    HS17150   0.135   2.028   6.271 -1.1702  0.2203 -1.0086
  155SAPE   O2117151   0.102   1.905   6.103  0.1190 -0.3850  0.4405
  155SAPE   C2117152  -0.028   1.919   6.101  0.1987 -0.4308  0.2029
  155SAPE   O2217153  -0.081   2.003   6.170  0.5921  0.6671 -0.6465
  155SAPE   C2217154  -0.095   1.819   6.003  0.5937 -0.1684  0.2225
  155SAPE   H2R17155  -0.027   1.745   5.955 -0.7050 -1.4338  0.2542
  155SAPE   H2S17156  -0.158   1.747   6.061 -0.9679  1.8167  1.1193
  155SAPE    C317157   0.210   2.121   6.086  0.3174 -0.3657  0.6487
  155SAPE    HX17158   0.112   2.166   6.058  0.8845  0.2573 -0.3685
  155SAPE    HY17159   0.252   2.085   5.990 -3.5644 -2.7697 -0.3551
  155SAPE   O3117160   0.307   2.219   6.153 -0.0566 -0.1201 -0.1013
  155SAPE   C3117161   0.248   2.327   6.210 -0.3020  0.1037  0.7665
  155SAPE   O3217162   0.136   2.341   6.236  0.5992 -1.0236  0.3672
  155SAPE   C3217163   0.359   2.429   6.237 -0.0426  0.1160  0.1433
  155SAPE   H2X17164   0.460   2.392   6.265 -0.3109 -0.2523  0.6345
  155SAPE   H2Y17165   0.327   2.484   6.328 -1.9431 -2.4453  1.1557
  155SAPE   C2317166  -0.190   1.896   5.906  0.5022  0.1243  0.3686
  155SAPE   H3R17167  -0.278   1.952   5.942 -1.0691 -0.8264 -1.7347
  155SAPE   H3S17168  -0.248   1.827   5.841 -0.0712  1.0483 -0.1128
  155SAPE   C2417169  -0.113   1.999   5.813  0.5466  0.1357 -0.4976
  155SAPE   H4R17170  -0.049   2.059   5.882  2.3886 -3.6251  1.3798
  155SAPE   H4S17171  -0.182   2.074   5.770 -0.1478 -0.0232  0.3083
  155SAPE   C2517172  -0.031   1.935   5.699 -0.5906  0.1034  0.0721
  155SAPE   H5R17173   0.044   1.867   5.742 -0.3177  0.1254 -0.3731
  155SAPE   C2617174  -0.028   1.959   5.568 -0.5998  0.0863  0.6977
  155SAPE   H6R17175   0.049   1.909   5.507  0.4151  2.9982 -0.6190
  155SAPE   C2717176  -0.115   2.053   5.478 -0.0814 -0.0620  0.4676
  155SAPE   H7R17177  -0.074   2.156   5.471  1.1245 -0.6694 -2.9685
  155SAPE   H7S17178  -0.222   2.064   5.508 -0.2191 -0.2436  0.0550
  155SAPE   C2817179  -0.120   1.995   5.336  0.1223  0.2739 -0.8145
  155SAPE   H8R17180  -0.212   1.938   5.316 -1.9520  2.2297  2.2030
  155SAPE   C2917181  -0.039   2.033   5.238 -0.1150  0.3569 -0.0987
  155SAPE   H9R17182  -0.057   1.976   5.146 -0.0305 -0.5275  0.4186
  155SAPE  C21017183   0.089   2.133   5.245  1.1394  0.5798  0.4624
  155SAPE  H10R17184   0.175   2.071   5.278  1.7803  1.4104  0.3654
  155SAPE  H10S17185   0.075   2.210   5.323  0.1070 -0.7022  1.5975
  155SAPE  C21117186   0.116   2.185   5.103 -0.3924  0.3162 -0.0166
  155SAPE  H11R17187   0.206   2.141   5.059 -0.8846 -1.1820  0.4080
  155SAPE  C21217188   0.044   2.266   5.028 -0.3289  0.1966  0.4656
  155SAPE  H12R17189   0.083   2.281   4.926 -0.1568  0.0879  0.5149
  155SAPE  C21317190  -0.092   2.331   5.059 -0.4267  0.2459  0.0627
  155SAPE  H13R17191  -0.101   2.333   5.170 -2.3601  1.6580 -0.0682
  155SAPE  H13S17192  -0.172   2.264   5.019 -0.2545 -0.3216  0.6496
  155SAPE  C21417193  -0.097   2.467   5.002 -0.8542 -0.5471 -0.0055
  155SAPE  H14R17194  -0.082   2.547   5.076  0.3848 -0.8284  0.0685
  155SAPE  C21517195  -0.121   2.497   4.872  0.9347  0.2802  0.3594
  155SAPE  H15R17196  -0.115   2.599   4.830 -0.4774 -0.2459 -1.2229
  155SAPE  C21617197  -0.154   2.393   4.764 -1.1077  0.2523 -0.1844
  155SAPE  H16R17198  -0.263   2.400   4.740 -1.8071 -1.2271  2.2515
  155SAPE  H16S17199  -0.131   2.286   4.782 -2.5100  0.0587  0.5789
  155SAPE  C21717200  -0.082   2.433   4.633 -0.6580 -0.4689 -0.2508
  155SAPE  H17R17201   0.024   2.398   4.629 -0.4897  0.1171 -1.9933
  155SAPE  H17S17202  -0.081   2.542   4.613 -0.8913 -0.4781 -0.3073
  155SAPE  C21817203  -0.135   2.358   4.510 -0.0944 -0.1526 -1.0052
  155SAPE  H18R17204  -0.246   2.366   4.517  0.0794  1.4823  0.8672
  155SAPE  H18S17205  -0.096   2.254   4.508  0.9703  0.1926  0.2727
  155SAPE  C21917206  -0.103   2.428   4.378 -0.4227  0.2267  0.3092
  155SAPE  H19R17207  -0.142   2.531   4.388 -1.9350 -0.3386  0.5005
  155SAPE  H19S17208  -0.160   2.375   4.299  0.3081  0.5287 -0.4398
  155SAPE  C22017209   0.049   2.435   4.342 -0.2305  0.0310 -0.1915
  155SAPE  H20R17210   0.097   2.335   4.349  0.9194  0.6705  1.6770
  155SAPE  H20S17211   0.099   2.509   4.408  0.1363  0.5611 -1.0431
  155SAPE  H20T17212   0.075   2.470   4.240  0.0065  2.4111  0.6305
  155SAPE   C3317213   0.380   2.522   6.110 -0.2651  0.0186 -0.1282
  155SAPE   H3X17214   0.300   2.598   6.103  0.1507  0.5087  0.3673
  155SAPE   H3Y17215   0.365   2.466   6.015  0.1863  0.8694 -0.7073
  155SAPE   C3417216   0.518   2.580   6.098  0.5124 -0.9842  0.0199
  155SAPE   H4X17217   0.576   2.499   6.048 -0.4736 -2.0230  0.5246
  155SAPE   H4Y17218   0.552   2.596   6.202 -0.1546 -1.0212  0.2486
  155SAPE   C3517219   0.519   2.718   6.013 -0.3825 -0.1291 -0.1895
  155SAPE   H5X17220   0.620   2.762   6.026 -0.1299 -0.5328 -0.7082
  155SAPE   H5Y17221   0.448   2.787   6.064  2.8134  0.9292  3.2965
  155SAPE   C3617222   0.492   2.708   5.867 -0.0405  0.6858  0.1009
  155SAPE   H6X17223   0.383   2.696   5.850  0.4592 -0.4769 -3.1372
  155SAPE   H6Y17224   0.544   2.621   5.823  1.9258  0.9442  1.7595
  155SAPE   C3717225   0.512   2.846   5.804 -0.3566 -0.0451 -0.0637
  155SAPE   H7X17226   0.612   2.885   5.830 -1.0023  1.9076 -0.3689
  155SAPE   H7Y17227   0.453   2.932   5.841  1.1587  1.4100 -0.9108
  155SAPE   C3817228   0.493   2.848   5.656  0.2995 -0.5236  0.2009
  155SAPE   H8X17229   0.390   2.829   5.622 -0.1694  3.2551 -1.0115
  155SAPE   H8Y17230   0.554   2.773   5.601  1.7927  0.4274  0.4704
  155SAPE   C3917231   0.541   2.981   5.582  0.3506  0.4238 -0.6620
  155SAPE   H9X17232   0.649   2.999   5.601  0.2959 -0.2867  0.4870
  155SAPE   H9Y17233   0.491   3.058   5.644  0.5943 -1.4799  2.0750
  155SAPE  C31017234   0.495   2.989   5.435  0.1585 -0.4754  0.0811
  155SAPE  H10X17235   0.384   2.983   5.428  0.1287 -1.8552  1.1351
  155SAPE  H10Y17236   0.526   2.900   5.376 -0.1178  0.7445 -2.0069
  155SAPE  C31117237   0.528   3.121   5.360  0.2917  0.1953 -0.6665
  155SAPE  H11X17238   0.630   3.153   5.389  0.9504 -1.6850 -0.7635
  155SAPE  H11Y17239   0.465   3.203   5.399  1.8604  0.9228  0.4048
  155SAPE  C31217240   0.512   3.105   5.204  0.3774 -0.8020 -0.3705
  155SAPE  H12X17241   0.402   3.094   5.192  0.1365 -0.3047  1.1405
  155SAPE  H12Y17242   0.564   3.018   5.158  1.2617  0.7453 -2.4411
  155SAPE  C31317243   0.548   3.232   5.128  0.5594  0.2345  0.4664
  155SAPE  H13X17244   0.651   3.224   5.088  0.0358  1.7764 -1.3761
  155SAPE  H13Y17245   0.550   3.322   5.193 -0.7367 -0.2312  1.2031
  155SAPE  C31417246   0.446   3.271   5.023  0.1189 -0.2817  0.6398
  155SAPE  H14X17247   0.346   3.266   5.071  0.9732  0.1698  2.5408
  155SAPE  H14Y17248   0.443   3.187   4.950 -1.7634 -1.3075  1.8207
  155SAPE  C31517249   0.465   3.402   4.950  0.4726 -0.1799 -0.4763
  155SAPE  H15X17250   0.438   3.487   5.016  2.1576  0.9785 -1.1699
  155SAPE  H15Y17251   0.390   3.399   4.868  0.4250  2.1040 -0.5749
  155SAPE  C31617252   0.602   3.430   4.897  0.0546  0.5072  0.3952
  155SAPE  H16X17253   0.646   3.350   4.834 -0.5734  0.4377  0.0380
  155SAPE  H16Y17254   0.674   3.457   4.977  1.7186 -4.0198  0.7426
  155SAPE  C31717255   0.599   3.553   4.806  0.7022  0.7296  0.3489
  155SAPE  H17X17256   0.595   3.637   4.879  1.3512  0.1869  1.0253
  155SAPE  H17Y17257   0.511   3.547   4.739  0.1415  1.1748  1.0318
  155SAPE  C31817258   0.725   3.580   4.726 -0.1243  0.1842 -0.5886
  155SAPE  H18X17259   0.739   3.501   4.649  0.9194  1.6336 -1.9590
  155SAPE  H18Y17260   0.805   3.577   4.803 -0.4965  0.8068 -0.1679
  155SAPE  H18Z17261   0.713   3.680   4.678  0.4172 -0.4937 -2.2233
  156SAPE     N17262   2.770   2.256   7.088  0.0975 -0.6455  0.3529
  156SAPE   HN117263   2.784   2.359   7.093 -1.2471 -0.4536  0.6923
  156SAPE   HN217264   2.858   2.202   7.081 -0.4573 -1.4911 -0.2519
  156SAPE   HN317265   2.711   2.237   7.004  1.0511 -1.2209 -0.2083
  156SAPE   C1217266   2.704   2.208   7.213  1.4179  0.0812  0.0677
  156SAPE  H12A17267   2.615   2.270   7.237  0.6525 -1.2862  0.8861
  156SAPE  H12B17268   2.779   2.205   7.295  2.3731  0.4447 -0.7540
  156SAPE   C1117269   2.640   2.064   7.199  0.3486  0.0548  0.6575
  156SAPE  H11A17270   2.572   2.071   7.111  3.2383  2.4239 -1.5598
  156SAPE  H11B17271   2.578   2.044   7.290  0.9701 -0.5867  0.9499
  156SAPE     P17272   2.703   1.809   7.182 -0.2674  0.1292  0.4898
  156SAPE   O1317273   2.828   1.730   7.167  0.9322  0.1645  0.1921
  156SAPE   O1417274   2.622   1.787   7.303 -0.0528  0.2032  0.0281
  156SAPE   O1217275   2.738   1.963   7.174  0.6843  0.4283 -0.1837
  156SAPE   O1117276   2.604   1.785   7.061 -0.4459 -0.0916 -0.1066
  156SAPE    C117277   2.632   1.752   6.927 -0.5410  0.0439  0.0994
  156SAPE    HA17278   2.714   1.677   6.926 -1.8735 -1.4629 -0.2923
  156SAPE    HB17279   2.553   1.686   6.886  0.2558 -1.0119  0.2069
  156SAPE    C217280   2.654   1.868   6.842  0.4687  0.3462 -0.4921
  156SAPE    HS17281   2.733   1.930   6.889  0.4186 -0.1624  0.2787
  156SAPE   O2117282   2.531   1.951   6.838 -0.7565 -0.0231  0.2769
  156SAPE   C2117283   2.546   2.080   6.831 -0.1400 -1.3324  0.6384
  156SAPE   O2217284   2.639   2.144   6.877 -0.2615 -0.7584 -0.7766
  156SAPE   C2217285   2.423   2.132   6.753  0.2474 -0.3150 -0.1620
  156SAPE   H2R17286   2.389   2.069   6.669  0.0274 -0.2454 -0.1257
  156SAPE   H2S17287   2.336   2.121   6.821  0.3610 -0.7504 -0.0860
  156SAPE    C317288   2.710   1.843   6.697  0.2073 -0.4080  0.5867
  156SAPE    HX17289   2.658   1.768   6.632  0.0753 -0.7016  1.0260
  156SAPE    HY17290   2.806   1.794   6.726  0.5036  0.6698  1.4695
  156SAPE   O3117291   2.734   1.962   6.617 -0.2664  0.1265  0.2609
  156SAPE   C3117292   2.856   1.999   6.603  0.6733  0.0369 -0.7796
  156SAPE   O3217293   2.955   1.939   6.642 -0.1489  0.7514  0.3693
  156SAPE   C3217294   2.854   2.126   6.518 -0.6941  0.7716  0.6803
  156SAPE   H2X17295   2.904   2.215   6.563 -2.7789  1.9014  0.8839
  156SAPE   H2Y17296   2.749   2.160   6.514 -0.6756  0.6917 -1.3425
  156SAPE   C2317297   2.432   2.283   6.717 -0.2066  0.0515  0.2807
  156SAPE   H3R17298   2.474   2.341   6.802 -0.1371  1.5123 -0.6966
  156SAPE   H3S17299   2.333   2.331   6.706 -0.4501 -0.2025  1.3129
  156SAPE   C2417300   2.522   2.315   6.598  0.7108 -0.2382 -0.5020
  156SAPE   H4R17301   2.509   2.247   6.512  1.3907  0.7672 -1.4197
  156SAPE   H4S17302   2.628   2.305   6.630  0.1227 -1.7373  1.1932
  156SAPE   C2517303   2.494   2.459   6.544  0.2046  0.3995 -0.2329
  156SAPE   H5R17304   2.529   2.543   6.605  0.2141 -0.6581  1.2608
  156SAPE   C2617305   2.429   2.489   6.432 -0.1880 -0.1102  0.8320
  156SAPE   H6R17306   2.408   2.596   6.416  0.7175 -0.2741 -2.1493
  156SAPE   C2717307   2.367   2.403   6.321  0.3194 -0.3098 -0.0569
  156SAPE   H7R17308   2.326   2.472   6.245 -0.9014 -0.6744  0.2523
  156SAPE   H7S17309   2.282   2.343   6.359  0.2328  0.3949  0.8994
  156SAPE   C2817310   2.472   2.321   6.244  0.1220  0.0856  0.2047
  156SAPE   H8R17311   2.554   2.288   6.309 -1.5170 -1.0369  1.8009
  156SAPE   C2917312   2.471   2.276   6.112  0.3566 -0.3782  0.3711
  156SAPE   H9R17313   2.544   2.203   6.076  1.3754  0.8063 -0.0293
  156SAPE  C21017314   2.355   2.316   6.024  0.5405  0.1462 -0.3826
  156SAPE  H10R17315   2.303   2.407   6.062  0.8999  1.4514 -2.7799
  156SAPE  H10S17316   2.279   2.236   6.015 -2.0454  2.4171  0.1032
  156SAPE  C21117317   2.407   2.371   5.891  0.2565  0.2572  0.8474
  156SAPE  H11R17318   2.497   2.434   5.895  1.8302 -1.8611  1.0784
  156SAPE  C21217319   2.352   2.340   5.772 -0.4862  0.5770  0.0721
  156SAPE  H12R17320   2.396   2.383   5.680  2.6554 -1.5821  0.3896
  156SAPE  C21317321   2.226   2.263   5.753  0.1265  0.2074  0.7205
  156SAPE  H13R17322   2.164   2.266   5.844  0.2201  1.4122  0.7662
  156SAPE  H13S17323   2.249   2.155   5.737  1.2824  0.6425 -0.9644
  156SAPE  C21417324   2.126   2.326   5.655  0.2387  0.4423  0.0846
  156SAPE  H14R17325   2.106   2.432   5.676 -3.0188 -0.3291  1.6101
  156SAPE  C21517326   2.071   2.271   5.543 -0.1454  0.3566 -0.2776
  156SAPE  H15R17327   2.007   2.333   5.479  1.4719  1.9011 -0.4881
  156SAPE  C21617328   2.103   2.133   5.499  0.2816  0.9002 -0.0456
  156SAPE  H16R17329   2.021   2.067   5.533  1.2266 -0.7864 -0.8916
  156SAPE  H16S17330   2.193   2.096   5.553 -0.1706  0.6968  0.5829
  156SAPE  C21717331   2.123   2.111   5.347  0.0937  0.9117 -0.0597
  156SAPE  H17R17332   2.023   2.131   5.303 -2.0636 -0.6033  3.6751
  156SAPE  H17S17333   2.146   2.002   5.343  1.0416  1.0858  0.4260
  156SAPE  C21817334   2.247   2.189   5.296  0.4334  0.0609 -0.4217
  156SAPE  H18R17335   2.332   2.169   5.365 -0.4862 -0.3489  0.6179
  156SAPE  H18S17336   2.218   2.295   5.308  0.0349 -0.0979  0.0474
  156SAPE  C21917337   2.279   2.160   5.147  0.5011 -0.3279  0.4774
  156SAPE  H19R17338   2.310   2.055   5.131 -1.3297 -0.6549 -1.3647
  156SAPE  H19S17339   2.365   2.221   5.113  0.8007 -0.0010  1.7499
  156SAPE  C22017340   2.158   2.192   5.057  0.0567 -0.7954 -0.0892
  156SAPE  H20R17341   2.193   2.202   4.953 -0.1064  2.5014  0.0878
  156SAPE  H20S17342   2.123   2.297   5.069  0.7771 -0.5723  0.0616
  156SAPE  H20T17343   2.070   2.124   5.045 -2.0103  1.9784 -1.8318
  156SAPE   C3317344   2.908   2.117   6.367 -0.6183 -0.6354 -0.2053
  156SAPE   H3X17345   3.017   2.103   6.354 -0.1837  1.5598  0.5585
  156SAPE   H3Y17346   2.885   2.219   6.328  0.7990 -0.3648 -0.3807
  156SAPE   C3417347   2.830   2.011   6.280 -0.1009  1.0016  0.5729
  156SAPE   H4X17348   2.727   2.045   6.255 -1.3820 -1.3485  2.2793
  156SAPE   H4Y17349   2.834   1.913   6.332  2.8489  1.4327  1.3494
  156SAPE   C3517350   2.901   1.970   6.149 -0.2158 -0.3279 -0.3493
  156SAPE   H5X17351   2.825   1.896   6.114  1.1437 -0.9057 -2.2143
  156SAPE   H5Y17352   2.999   1.917   6.154  0.8985  1.6878  0.2390
  156SAPE   C3617353   2.918   2.082   6.049  0.4479  0.6324 -0.6013
  156SAPE   H6X17354   2.980   2.163   6.093 -0.9659  0.0390  2.7680
  156SAPE   H6Y17355   2.813   2.115   6.031 -0.3366  0.2065  2.6291
  156SAPE   C3717356   2.965   2.038   5.914  0.4422 -0.1913 -0.4953
  156SAPE   H7X17357   3.066   1.991   5.914  0.1270 -0.8950 -1.0519
  156SAPE   H7Y17358   2.963   2.136   5.863  1.7263  1.1104  1.8211
  156SAPE   C3817359   2.866   1.940   5.842  0.0090 -0.2392  0.2123
  156SAPE   H8X17360   2.770   1.995   5.830 -0.0767 -0.0127  1.7746
  156SAPE   H8Y17361   2.859   1.847   5.901  2.2013 -0.0053  0.9401
  156SAPE   C3917362   2.913   1.896   5.698  0.6254 -0.0824 -0.0480
  156SAPE   H9X17363   2.921   1.979   5.625  0.0016 -0.0431 -0.0711
  156SAPE   H9Y17364   2.830   1.831   5.662  1.2507 -1.3338  0.7117
  156SAPE  C31017365   3.050   1.822   5.712  0.0601  0.2371  0.3384
  156SAPE  H10X17366   3.049   1.733   5.779 -0.1368  0.7058  0.9704
  156SAPE  H10Y17367   3.127   1.887   5.757  1.3249 -1.4319  0.6885
  156SAPE  C31117368   3.118   1.790   5.572  0.4361  0.0900 -0.0828
  156SAPE  H11X17369   3.054   1.727   5.507 -0.7961 -0.3142  1.4415
  156SAPE  H11Y17370   3.207   1.726   5.590 -0.8596 -1.9602 -0.5989
  156SAPE  C31217371   3.135   1.918   5.491  0.7632  0.5665 -0.0011
  156SAPE  H12X17372   3.200   1.988   5.548  1.4465 -0.3695  0.4006
  156SAPE  H12Y17373   3.041   1.969   5.461  0.8995  2.6128  2.7123
  156SAPE  C31317374   3.209   1.894   5.364  0.4934  1.0036 -0.7115
  156SAPE  H13X17375   3.157   1.830   5.289  0.8371 -0.0755 -0.0556
  156SAPE  H13Y17376   3.304   1.848   5.399 -0.3929  1.1006  2.1072
  156SAPE  C31417377   3.235   2.020   5.301  0.3094  0.2497  0.0147
  156SAPE  H14X17378   3.251   2.106   5.369  0.5569 -0.9359  1.5015
  156SAPE  H14Y17379   3.138   2.050   5.254  0.2805  0.4341  0.1937
  156SAPE  C31517380   3.351   2.017   5.205 -0.6108  0.4454 -0.0528
  156SAPE  H15X17381   3.342   1.934   5.131 -1.4147  1.5263 -1.2082
  156SAPE  H15Y17382   3.442   1.992   5.264  1.3035  0.2082 -2.8781
  156SAPE  C31617383   3.385   2.147   5.119 -0.4443  0.0198  0.4518
  156SAPE  H16X17384   3.326   2.157   5.026 -0.0743 -0.6156  0.1426
  156SAPE  H16Y17385   3.487   2.142   5.075 -0.8873 -4.0817 -0.4916
  156SAPE  C31717386   3.378   2.277   5.199 -0.0318 -0.9139  0.3441
  156SAPE  H17X17387   3.439   2.269   5.291  1.0076  2.5507  0.1104
  156SAPE  H17Y17388   3.278   2.305   5.237  0.7598 -1.0849  2.7303
  156SAPE  C31817389   3.415   2.394   5.107 -0.2068  0.2427 -0.0977
  156SAPE  H18X17390   3.519   2.380   5.068  0.2934  1.5466  0.7202
  156SAPE  H18Y17391   3.412   2.489   5.164 -0.3204  1.1082 -1.4828
  156SAPE  H18Z17392   3.345   2.403   5.022 -1.5039  2.0179  1.1004
  157SAPE     N17393   1.932   0.662   7.005 -0.0889  0.3616 -0.2710
  157SAPE   HN117394   1.835   0.649   6.970 -0.8714  0.2620  1.8247
  157SAPE   HN217395   1.937   0.644   7.107 -0.9910 -0.2913 -0.3289
  157SAPE   HN317396   1.972   0.753   6.974  0.4263 -0.8066 -3.4810
  157SAPE   C1217397   2.000   0.543   6.935 -0.5924  0.0204 -0.9071
  157SAPE  H12A17398   2.095   0.521   6.989  0.4823 -0.3426 -2.8388
  157SAPE  H12B17399   2.023   0.561   6.828  3.4986 -1.2263 -0.4246
  157SAPE   C1117400   1.914   0.411   6.949 -0.1446  0.6795  0.0530
  157SAPE  H11A17401   1.964   0.319   6.913 -0.1267 -0.0639  1.8591
  157SAPE  H11B17402   1.842   0.424   6.866 -0.5030 -0.9155  0.0970
  157SAPE     P17403   1.737   0.279   7.092  0.0451  0.0952 -0.0950
  157SAPE   O1317404   1.795   0.146   7.134 -0.5195 -0.5527 -0.4464
  157SAPE   O1417405   1.629   0.329   7.180 -0.5469  0.0441  0.1893
  157SAPE   O1217406   1.856   0.389   7.080  0.6175 -0.7706 -0.4649
  157SAPE   O1117407   1.685   0.256   6.949 -0.2008  0.0205  0.1131
  157SAPE    C117408   1.648   0.130   6.890  0.1428  0.0305 -0.2558
  157SAPE    HA17409   1.635   0.055   6.971  0.7483 -0.3307 -0.4861
  157SAPE    HB17410   1.546   0.128   6.847 -0.2579  0.7079  0.6369
  157SAPE    C217411   1.768   0.090   6.802 -0.0008 -0.1960 -0.6234
  157SAPE    HS17412   1.864   0.093   6.857 -1.7549  2.0114  2.6996
  157SAPE   O2117413   1.768   0.188   6.693  0.3324  0.0787 -0.4841
  157SAPE   C2117414   1.879   0.215   6.636  0.4457  0.2409 -0.7182
  157SAPE   O2217415   1.987   0.195   6.693 -0.0462 -0.4232  0.2251
  157SAPE   C2217416   1.861   0.300   6.512 -0.2485  0.4394 -0.0303
  157SAPE   H2R17417   1.850   0.226   6.429 -1.2550  0.4175  0.1105
  157SAPE   H2S17418   1.763   0.352   6.506 -2.4228 -3.3527 -2.4431
  157SAPE    C317419   1.745  -0.048   6.744 -0.5397 -0.0139 -0.2050
  157SAPE    HX17420   1.749  -0.126   6.823  2.2704  0.1803 -0.0559
  157SAPE    HY17421   1.834  -0.064   6.679 -0.0660  1.4997  0.0177
  157SAPE   O3117422   1.626  -0.075   6.671  0.3203 -0.1452 -0.6533
  157SAPE   C3117423   1.622  -0.049   6.545 -0.1827  0.2737  0.1730
  157SAPE   O3217424   1.706   0.008   6.479 -0.2797 -0.0914 -0.8498
  157SAPE   C3217425   1.497  -0.126   6.486  0.0326  0.2440  0.2249
  157SAPE   H2X17426   1.422  -0.137   6.567 -0.5531 -1.1995 -0.4721
  157SAPE   H2Y17427   1.523  -0.230   6.458  0.3854  0.1808  0.7832
  157SAPE   C2317428   1.975   0.399   6.482 -0.0689  0.0865  0.7613
  157SAPE   H3R17429   2.003   0.460   6.570  0.9835  0.4797  0.1721
  157SAPE   H3S17430   1.936   0.464   6.401  0.8891 -0.2885 -0.0177
  157SAPE   C2417431   2.101   0.331   6.428  0.0957  0.2114  0.6948
  157SAPE   H4R17432   2.075   0.285   6.330 -2.2472  1.5706  0.5860
  157SAPE   H4S17433   2.124   0.243   6.491 -3.4055 -1.7818 -0.5590
  157SAPE   C2517434   2.224   0.422   6.417 -0.4926 -0.4034 -0.3073
  157SAPE   H5R17435   2.242   0.489   6.502  0.2315  0.3416 -1.0319
  157SAPE   C2617436   2.312   0.426   6.314 -0.5766 -0.7729  0.2198
  157SAPE   H6R17437   2.394   0.499   6.326  0.0133 -1.1827 -1.0842
  157SAPE   C2717438   2.313   0.345   6.184 -0.5803  0.7133  0.0539
  157SAPE   H7R17439   2.271   0.397   6.096 -0.7515  1.4037  0.5349
  157SAPE   H7S17440   2.258   0.252   6.210 -3.1211  1.9706 -0.5486
  157SAPE   C2817441   2.456   0.311   6.154  0.3375  0.0935 -0.1021
  157SAPE   H8R17442   2.531   0.289   6.232  0.6637 -0.3957 -0.5421
  157SAPE   C2917443   2.510   0.290   6.030 -0.0250 -0.4849  0.1370
  157SAPE   H9R17444   2.615   0.263   6.016 -0.5209 -1.1683 -3.0402
  157SAPE  C21017445   2.430   0.288   5.903 -0.3982 -0.2224  1.0481
  157SAPE  H10R17446   2.323   0.315   5.909 -0.2569  0.1015  2.4235
  157SAPE  H10S17447   2.424   0.187   5.859  0.8545  1.6215 -4.0973
  157SAPE  C21117448   2.508   0.378   5.808 -0.0677 -1.1923  0.0717
  157SAPE  H11R17449   2.583   0.334   5.740  0.4736  0.6420 -0.5725
  157SAPE  C21217450   2.513   0.517   5.827 -0.7819  0.2550 -0.3270
  157SAPE  H12R17451   2.579   0.569   5.755  1.4615  0.9826  2.0978
  157SAPE  C21317452   2.434   0.608   5.923  0.7566  0.1563  1.0559
  157SAPE  H13R17453   2.365   0.569   6.001 -2.8492  2.5818 -0.6556
  157SAPE  H13S17454   2.369   0.678   5.866 -0.0844 -0.8028  0.8107
  157SAPE  C21417455   2.539   0.694   5.986  0.0329  0.1019  0.8183
  157SAPE  H14R17456   2.608   0.636   6.050  0.6494 -0.4728 -0.3278
  157SAPE  C21517457   2.546   0.830   5.973 -0.4192 -0.6220 -0.5592
  157SAPE  H15R17458   2.623   0.884   6.029 -0.0199 -1.1088 -0.6305
  157SAPE  C21617459   2.456   0.929   5.909  0.2028  0.4465 -0.0923
  157SAPE  H16R17460   2.374   0.871   5.861  0.6072  1.0155 -1.5212
  157SAPE  H16S17461   2.499   0.982   5.821 -1.2700  0.5655 -0.7621
  157SAPE  C21717462   2.396   1.032   6.005  0.0727 -0.4922 -0.3705
  157SAPE  H17R17463   2.480   1.069   6.068 -0.9594  0.5597  0.4234
  157SAPE  H17S17464   2.322   0.993   6.077 -1.0651  1.4370 -0.4375
  157SAPE  C21817465   2.320   1.144   5.927 -0.3859  0.0834 -0.1517
  157SAPE  H18R17466   2.238   1.101   5.866 -1.0400 -0.8837  1.3532
  157SAPE  H18S17467   2.395   1.196   5.863 -2.9927  1.4267 -2.3011
  157SAPE  C21917468   2.250   1.253   6.010 -0.0283  0.0689 -0.6945
  157SAPE  H19R17469   2.334   1.299   6.066 -0.3335  0.7996 -0.8313
  157SAPE  H19S17470   2.172   1.235   6.087  1.3945  2.2868  1.4239
  157SAPE  C22017471   2.196   1.372   5.939  0.0841  0.2690  0.0537
  157SAPE  H20R17472   2.178   1.453   6.013 -0.1679  0.2192  0.0491
  157SAPE  H20S17473   2.103   1.350   5.882  0.9394  0.4612 -1.4811
  157SAPE  H20T17474   2.275   1.402   5.866 -1.5730  0.9134 -1.5560
  157SAPE   C3317475   1.448  -0.056   6.354  0.1209 -0.4556  0.0670
  157SAPE   H3X17476   1.536  -0.050   6.286  1.3529 -1.8827  1.4521
  157SAPE   H3Y17477   1.407   0.046   6.371  0.4326 -0.4708  0.9386
  157SAPE   C3417478   1.335  -0.132   6.280  0.0552 -0.2531  0.2815
  157SAPE   H4X17479   1.250  -0.119   6.350 -0.7331  0.6479 -0.8049
  157SAPE   H4Y17480   1.361  -0.239   6.272  3.0238  0.3904  0.0741
  157SAPE   C3517481   1.291  -0.079   6.147  0.0604 -0.3019  1.1780
  157SAPE   H5X17482   1.257   0.027   6.145 -0.6582 -0.5300  0.2565
  157SAPE   H5Y17483   1.200  -0.138   6.120  0.6352 -0.3333 -0.9262
  157SAPE   C3617484   1.386  -0.117   6.031 -0.0435  0.5051  1.0491
  157SAPE   H6X17485   1.422  -0.222   6.039 -1.0680 -0.0207 -0.6097
  157SAPE   H6Y17486   1.479  -0.058   6.030 -1.0314  2.3306 -2.9838
  157SAPE   C3717487   1.335  -0.099   5.883  0.3972 -0.0127  0.0840
  157SAPE   H7X17488   1.351   0.007   5.851  2.4020 -0.2778  0.0468
  157SAPE   H7Y17489   1.234  -0.144   5.873  1.4930 -2.0473 -3.6119
  157SAPE   C3817490   1.424  -0.175   5.786  0.2338  0.7119 -0.0002
  157SAPE   H8X17491   1.402  -0.278   5.821 -0.3697  0.6580 -0.5129
  157SAPE   H8Y17492   1.527  -0.152   5.818 -0.5267  0.9844  2.4669
  157SAPE   C3917493   1.396  -0.160   5.637 -0.1725 -0.3534  0.4623
  157SAPE   H9X17494   1.449  -0.072   5.595 -1.7742  0.3642 -0.1098
  157SAPE   H9Y17495   1.289  -0.136   5.625  0.6003  2.1311 -2.6546
  157SAPE  C31017496   1.426  -0.276   5.542 -0.1634 -0.5758 -0.0658
  157SAPE  H10X17497   1.408  -0.369   5.600 -0.5737  0.0482  0.8364
  157SAPE  H10Y17498   1.532  -0.267   5.509 -0.1711 -0.1070  0.0277
  157SAPE  C31117499   1.331  -0.271   5.422  0.4755 -0.0314  0.0084
  157SAPE  H11X17500   1.233  -0.307   5.461 -0.0060  2.2222  1.0448
  157SAPE  H11Y17501   1.362  -0.345   5.346 -0.5022 -0.0842 -0.3517
  157SAPE  C31217502   1.300  -0.130   5.355 -0.0034 -0.0906  0.5219
  157SAPE  H12X17503   1.400  -0.099   5.318 -0.3197 -0.1389 -0.4058
  157SAPE  H12Y17504   1.264  -0.053   5.427 -1.8143  0.1865 -0.6126
  157SAPE  C31317505   1.210  -0.137   5.230 -0.7893  0.6470  0.3814
  157SAPE  H13X17506   1.112  -0.189   5.241 -0.9501  0.6459 -0.8928
  157SAPE  H13Y17507   1.272  -0.199   5.162 -1.6528 -0.2172  0.3543
  157SAPE  C31417508   1.177  -0.006   5.166 -0.5616  0.0668 -0.4983
  157SAPE  H14X17509   1.131  -0.014   5.065  0.6175  1.2104 -1.1536
  157SAPE  H14Y17510   1.276   0.043   5.157  0.4512 -1.6210  0.7898
  157SAPE  C31517511   1.077   0.086   5.241  0.6270  0.2947 -0.9096
  157SAPE  H15X17512   1.071   0.187   5.196  0.0256  0.3011 -0.8241
  157SAPE  H15Y17513   1.098   0.109   5.347 -2.4601  0.2834 -0.1955
  157SAPE  C31617514   0.923   0.028   5.248 -0.6918 -0.5468  0.1500
  157SAPE  H16X17515   0.931  -0.073   5.294  0.8269 -0.5812 -0.1492
  157SAPE  H16Y17516   0.890   0.023   5.142 -0.4784  0.8074 -0.0019
  157SAPE  C31717517   0.820   0.112   5.337  0.2668 -0.0479 -0.7008
  157SAPE  H17X17518   0.865   0.109   5.438 -1.2851  0.0140  0.0268
  157SAPE  H17Y17519   0.722   0.061   5.346  0.9695 -1.5675 -1.2341
  157SAPE  C31817520   0.806   0.258   5.308 -0.3285 -0.5643 -0.0581
  157SAPE  H18X17521   0.764   0.328   5.383 -1.5861 -0.6842 -0.6294
  157SAPE  H18Y17522   0.735   0.261   5.222 -0.4545  0.7303  0.0718
  157SAPE  H18Z17523   0.906   0.291   5.270  0.0638 -3.0219 -1.3502
  158SAPE     N17524   4.527   0.286   7.235  0.2100  0.0129 -0.2002
  158SAPE   HN117525   4.480   0.347   7.165  1.6407  0.7139 -0.5801
  158SAPE   HN217526   4.464   0.204   7.252 -1.7004  1.4866  0.2254
  158SAPE   HN317527   4.537   0.332   7.328  0.2945 -1.5592  0.6024
  158SAPE   C1217528   4.663   0.246   7.176  0.6253  0.0903 -0.6490
  158SAPE  H12A17529   4.713   0.195   7.262  1.2912  0.2443 -0.9380
  158SAPE  H12B17530   4.716   0.343   7.164 -0.6474  1.3540  2.5466
  158SAPE   C1117531   4.638   0.161   7.057 -0.6937  0.6244 -0.5064
  158SAPE  H11A17532   4.724   0.109   7.010 -1.8668 -1.0639 -0.8636
  158SAPE  H11B17533   4.592   0.229   6.982  2.2044  1.0883 -1.9944
  158SAPE     P17534   4.408   0.020   7.023 -0.3825  0.0274 -0.4519
  158SAPE   O1317535   4.377  -0.120   7.063 -0.3619 -0.1757  0.4695
  158SAPE   O1417536   4.308   0.127   7.047 -0.6139  0.0205 -0.2905
  158SAPE   O1217537   4.545   0.056   7.093  0.4542  0.2749 -0.4248
  158SAPE   O1117538   4.445   0.034   6.869  0.7117  0.1742  0.5348
  158SAPE    C117539   4.535  -0.064   6.812 -0.0846 -0.0211 -0.0203
  158SAPE    HA17540   4.629  -0.010   6.785  0.0067 -2.0496 -4.6345
  158SAPE    HB17541   4.571  -0.143   6.881 -0.5855 -1.6270 -1.5470
  158SAPE    C217542   4.479  -0.144   6.691  0.2001 -0.0647  0.1626
  158SAPE    HS17543   4.554  -0.200   6.630 -1.9975 -1.7362 -1.1739
  158SAPE   O2117544   4.376  -0.074   6.619 -0.5482 -0.0062  0.3534
  158SAPE   C2117545   4.414  -0.041   6.499 -0.1040 -0.2079  0.1086
  158SAPE   O2217546   4.521  -0.054   6.447 -0.2715 -0.9715 -0.5446
  158SAPE   C2217547   4.292   0.006   6.421  0.3035  0.6175  0.0498
  158SAPE   H2R17548   4.234  -0.088   6.428  0.9126  0.3501  1.8035
  158SAPE   H2S17549   4.232   0.088   6.467 -0.3169  0.8312 -1.0912
  158SAPE    C317550   4.401  -0.270   6.743  0.2934  0.1968  0.4128
  158SAPE    HX17551   4.303  -0.230   6.777  0.8934  0.9960  1.2541
  158SAPE    HY17552   4.451  -0.318   6.830  0.2872 -1.1803 -0.3085
  158SAPE   O3117553   4.392  -0.375   6.648 -0.3031  0.0979  0.1807
  158SAPE   C3117554   4.294  -0.367   6.552  0.7722 -0.2511 -0.7212
  158SAPE   O3217555   4.195  -0.297   6.563  0.0764  0.0349 -0.1345
  158SAPE   C3217556   4.334  -0.463   6.431 -0.2855 -0.1497  0.2180
  158SAPE   H2X17557   4.257  -0.543   6.436  0.2337 -0.7055 -0.4886
  158SAPE   H2Y17558   4.435  -0.505   6.448 -0.0523  0.0522 -0.6093
  158SAPE   C2317559   4.329   0.029   6.276  0.0036 -0.5011  0.5280
  158SAPE   H3R17560   4.366  -0.062   6.223  1.7583  0.3665  0.1937
  158SAPE   H3S17561   4.404   0.111   6.274 -0.0544 -0.4437 -1.3586
  158SAPE   C2417562   4.203   0.076   6.199  0.2098 -0.0464 -0.7164
  158SAPE   H4R17563   4.116   0.007   6.199 -0.9320  1.1449  3.2063
  158SAPE   H4S17564   4.235   0.087   6.093  3.4340  0.9363  0.2340
  158SAPE   C2517565   4.155   0.209   6.254 -0.4850  0.3375  0.8716
  158SAPE   H5R17566   4.060   0.196   6.308 -0.8373 -0.2944  0.1306
  158SAPE   C2617567   4.217   0.328   6.255 -0.5538 -0.1510  0.0683
  158SAPE   H6R17568   4.159   0.411   6.298 -1.4899 -1.1233  0.7290
  158SAPE   C2717569   4.347   0.361   6.187  0.1723  0.6818  0.4084
  158SAPE   H7R17570   4.327   0.451   6.126  0.9907 -0.1113 -1.1111
  158SAPE   H7S17571   4.374   0.283   6.112 -1.9076  1.5438 -1.3277
  158SAPE   C2817572   4.462   0.386   6.288 -0.2269  0.6049  0.1735
  158SAPE   H8R17573   4.454   0.333   6.384 -4.1101 -3.6855 -2.0881
  158SAPE   C2917574   4.571   0.456   6.253  0.1149  0.9192  0.0110
  158SAPE   H9R17575   4.646   0.467   6.334  0.7297 -2.0030 -0.0484
  158SAPE  C21017576   4.604   0.511   6.115  0.4301  0.2505 -0.5366
  158SAPE  H10R17577   4.681   0.590   6.131  1.9232 -1.3541  0.6581
  158SAPE  H10S17578   4.520   0.551   6.056 -2.4878 -1.9037  1.8556
  158SAPE  C21117579   4.659   0.391   6.041 -0.3491  0.4306 -0.4635
  158SAPE  H11R17580   4.703   0.317   6.109  0.0619  0.6631 -0.4717
  158SAPE  C21217581   4.645   0.359   5.916  0.4878  0.2547 -0.0924
  158SAPE  H12R17582   4.678   0.256   5.894  1.4090  0.0447  2.0299
  158SAPE  C21317583   4.583   0.442   5.800 -0.1009  0.4042 -0.3769
  158SAPE  H13R17584   4.665   0.456   5.727  0.1658  0.0884 -0.1364
  158SAPE  H13S17585   4.577   0.548   5.835  0.6067  0.5258 -0.6161
  158SAPE  C21417586   4.448   0.391   5.764  0.0340 -0.6682 -0.7186
  158SAPE  H14R17587   4.404   0.321   5.836 -0.3051  0.5557  0.3061
  158SAPE  C21517588   4.383   0.405   5.648 -0.5292  0.7879  0.8691
  158SAPE  H15R17589   4.291   0.347   5.634  0.2156  0.1895 -2.2571
  158SAPE  C21617590   4.427   0.477   5.525  0.4139  0.2414 -0.6545
  158SAPE  H16R17591   4.518   0.539   5.540  1.2286 -0.9870 -0.3419
  158SAPE  H16S17592   4.353   0.555   5.498  2.7282  2.6576 -0.3608
  158SAPE  C21717593   4.449   0.378   5.406 -0.0983  0.2046  0.4367
  158SAPE  H17R17594   4.473   0.443   5.319 -2.7449  1.3455  0.4636
  158SAPE  H17S17595   4.352   0.338   5.369  1.5810 -1.1756 -2.7834
  158SAPE  C21817596   4.545   0.260   5.437 -0.3910 -1.2132 -0.0259
  158SAPE  H18R17597   4.527   0.215   5.537 -1.1496 -0.9041 -0.0166
  158SAPE  H18S17598   4.646   0.307   5.444 -0.8599 -0.1004 -0.4486
  158SAPE  C21917599   4.556   0.149   5.332  0.4141  0.1004  0.5546
  158SAPE  H19R17600   4.462   0.090   5.319  0.5315  0.3836 -2.2592
  158SAPE  H19S17601   4.647   0.096   5.365  2.7028  2.3120 -1.6972
  158SAPE  C22017602   4.596   0.197   5.188  0.3717 -0.5860 -0.2702
  158SAPE  H20R17603   4.499   0.222   5.139  1.2916  0.1661 -1.7759
  158SAPE  H20S17604   4.646   0.119   5.127  0.3689 -0.2005 -0.7779
  158SAPE  H20T17605   4.671   0.278   5.201 -0.9867  0.6267  0.2930
  158SAPE   C3317606   4.329  -0.394   6.296 -0.8404 -0.3491 -0.8769
  158SAPE   H3X17607   4.414  -0.322   6.301 -1.7874  0.7664 -0.4650
  158SAPE   H3Y17608   4.230  -0.346   6.279 -1.4478 -1.3975 -0.3895
  158SAPE   C3417609   4.364  -0.488   6.191 -0.9055  0.2807 -0.0367
  158SAPE   H4X17610   4.366  -0.597   6.211  0.9623 -0.1932 -2.3883
  158SAPE   H4Y17611   4.469  -0.478   6.155 -0.9048 -3.4812 -1.5276
  158SAPE   C3517612   4.267  -0.465   6.069 -0.3876  0.2525  0.3526
  158SAPE   H5X17613   4.272  -0.357   6.041  2.1103  0.8929  2.8053
  158SAPE   H5Y17614   4.167  -0.505   6.094  0.0521 -0.7806  0.4781
  158SAPE   C3617615   4.295  -0.555   5.950  0.2815  0.3313 -0.1161
  158SAPE   H6X17616   4.273  -0.662   5.969 -2.3106  0.5068 -1.5767
  158SAPE   H6Y17617   4.400  -0.539   5.917  1.6527 -2.2522  2.5715
  158SAPE   C3717618   4.205  -0.516   5.833 -0.5867 -0.6441  0.3818
  158SAPE   H7X17619   4.219  -0.408   5.812  1.0176 -0.8528  0.2194
  158SAPE   H7Y17620   4.099  -0.540   5.854 -0.6300 -2.8956 -1.8376
  158SAPE   C3817621   4.237  -0.604   5.710  0.3692 -0.2243  0.0709
  158SAPE   H8X17622   4.224  -0.711   5.737 -0.3778 -0.2337 -0.2983
  158SAPE   H8Y17623   4.346  -0.599   5.689  0.8103 -0.1876  2.2002
  158SAPE   C3917624   4.151  -0.559   5.586 -0.0956  0.2494 -0.0962
  158SAPE   H9X17625   4.190  -0.469   5.533  1.2994 -1.8003 -2.7943
  158SAPE   H9Y17626   4.045  -0.554   5.618  1.1201  0.4945  4.5280
  158SAPE  C31017627   4.167  -0.659   5.468  0.1735 -0.1308  0.3999
  158SAPE  H10X17628   4.103  -0.749   5.481 -1.6010  0.7455 -1.6876
  158SAPE  H10Y17629   4.276  -0.679   5.466  0.8119  2.9140  0.1536
  158SAPE  C31117630   4.140  -0.614   5.323  0.6651  0.2519  0.1894
  158SAPE  H11X17631   4.196  -0.523   5.296  0.9306  0.3051  0.8941
  158SAPE  H11Y17632   4.034  -0.586   5.339  1.0227  1.7262  0.0667
  158SAPE  C31217633   4.156  -0.730   5.225  0.4567 -0.0387 -0.1674
  158SAPE  H12X17634   4.118  -0.823   5.272  0.9323  0.1215  0.5455
  158SAPE  H12Y17635   4.261  -0.749   5.197 -0.2756  0.1059 -3.4050
  158SAPE  C31317636   4.096  -0.712   5.087 -0.3182  0.4479 -0.1708
  158SAPE  H13X17637   3.994  -0.668   5.098  0.1010  1.0802  1.5697
  158SAPE  H13Y17638   4.086  -0.810   5.037 -0.0009  0.7901 -0.9213
  158SAPE  C31417639   4.191  -0.629   4.997  0.6486  0.0754  0.1880
  158SAPE  H14X17640   4.280  -0.686   4.965 -0.0253  0.2186 -2.1559
  158SAPE  H14Y17641   4.217  -0.540   5.059  2.7701  1.5019 -2.5456
  158SAPE  C31517642   4.132  -0.592   4.860 -0.6235  0.0333  0.0850
  158SAPE  H15X17643   4.046  -0.523   4.878 -0.1737  0.3821  1.0171
  158SAPE  H15Y17644   4.085  -0.672   4.800 -0.7395 -0.9209  1.3934
  158SAPE  C31617645   4.253  -0.531   4.786  0.0149 -0.4465  0.8387
  158SAPE  H16X17646   4.317  -0.617   4.756 -0.1484 -0.8212  1.5469
  158SAPE  H16Y17647   4.315  -0.468   4.853  1.5628 -1.3169  0.2726
  158SAPE  C31717648   4.213  -0.449   4.668  0.5566  0.2397 -0.0548
  158SAPE  H17X17649   4.305  -0.413   4.617  1.2582 -0.1257  0.9361
  158SAPE  H17Y17650   4.149  -0.364   4.699 -0.6823 -1.6870  3.0071
  158SAPE  C31817651   4.144  -0.539   4.575 -0.0125 -0.7125  0.8494
  158SAPE  H18X17652   4.039  -0.558   4.606 -0.2544  0.2210  0.6455
  158SAPE  H18Y17653   4.197  -0.636   4.561  0.4614 -0.3235 -0.1595
  158SAPE  H18Z17654   4.128  -0.499   4.472 -1.3082 -2.3426  0.3772
  159SAPE     N17655   2.850   5.694   2.290  0.0679 -0.3626  0.4048
  159SAPE   HN117656   2.779   5.767   2.267  1.0556  0.0449 -1.5724
  159SAPE   HN217657   2.924   5.721   2.358 -0.4433 -0.1481  0.8865
  159SAPE   HN317658   2.908   5.663   2.210 -1.6366 -0.2458 -0.9191
  159SAPE   C1217659   2.784   5.572   2.351 -1.4577  0.7098  0.4832
  159SAPE  H12A17660   2.784   5.489   2.277  2.7753  0.7123  0.2433
  159SAPE  H12B17661   2.680   5.599   2.381 -1.1655  0.4394  1.8013
  159SAPE   C1117662   2.855   5.535   2.488 -0.5008 -0.1364  0.5801
  159SAPE  H11A17663   2.810   5.451   2.545  1.1582 -1.6792 -0.3006
  159SAPE  H11B17664   2.843   5.623   2.555 -0.6326  0.7974 -0.6412
  159SAPE     P17665   3.051   5.365   2.461 -0.0266  0.0639  0.1013
  159SAPE   O1317666   2.980   5.293   2.350 -0.4337 -0.2563 -0.2198
  159SAPE   O1417667   3.202   5.372   2.445  0.0773  0.1776 -0.7971
  159SAPE   O1217668   2.991   5.512   2.473 -0.3073 -0.0178 -0.2356
  159SAPE   O1117669   3.023   5.293   2.600 -0.1394 -0.4467 -0.1803
  159SAPE    C117670   3.111   5.322   2.709 -0.4200  0.1456 -0.2700
  159SAPE    HA17671   3.155   5.226   2.745  2.2883  1.4763  0.2307
  159SAPE    HB17672   3.191   5.397   2.691  2.5912 -2.6852  0.2273
  159SAPE    C217673   3.040   5.358   2.843  0.0766 -0.0375  0.0812
  159SAPE    HS17674   3.115   5.354   2.924  1.2462  1.4392 -0.8558
  159SAPE   O2117675   2.920   5.265   2.853  0.4126 -0.3660 -0.5395
  159SAPE   C2117676   2.950   5.164   2.918 -0.5333  0.0593 -0.6243
  159SAPE   O2217677   3.058   5.143   2.977 -0.4192 -0.0777 -0.3499
  159SAPE   C2217678   2.835   5.067   2.910  0.1105  0.0065  0.3021
  159SAPE   H2R17679   2.788   5.082   2.811  3.5195  0.6538 -1.3564
  159SAPE   H2S17680   2.882   4.966   2.907  0.5216  0.2158 -0.4346
  159SAPE    C317681   3.005   5.517   2.840  0.4619 -0.0620  0.7206
  159SAPE    HX17682   2.963   5.536   2.738  0.0005 -2.1643  0.4742
  159SAPE    HY17683   3.099   5.577   2.838 -0.0036  0.7115 -1.3818
  159SAPE   O3117684   2.915   5.562   2.941 -0.3456  0.2510 -0.1788
  159SAPE   C3117685   2.967   5.568   3.065  0.1617  0.7013  0.2694
  159SAPE   O3217686   3.088   5.566   3.086 -0.5923  0.7297 -0.0315
  159SAPE   C3217687   2.855   5.581   3.173  0.2340 -0.0371 -0.0603
  159SAPE   H2X17688   2.785   5.496   3.164  1.9811 -2.2424  4.2560
  159SAPE   H2Y17689   2.799   5.675   3.156 -2.2448 -1.2633  0.8651
  159SAPE   C2317690   2.731   5.073   3.025 -0.2120 -0.6807  0.1778
  159SAPE   H3R17691   2.662   4.991   2.995  0.5250 -0.9244 -0.8701
  159SAPE   H3S17692   2.675   5.169   3.017 -0.0329 -0.6520 -0.9048
  159SAPE   C2417693   2.804   5.056   3.159  0.7807  0.3201  1.1840
  159SAPE   H4R17694   2.875   5.140   3.173 -0.6504  1.7822  0.0182
  159SAPE   H4S17695   2.854   4.956   3.155 -0.0592 -0.0858  0.3938
  159SAPE   C2517696   2.705   5.052   3.271 -0.4840  0.0218 -0.0718
  159SAPE   H5R17697   2.611   5.014   3.229  0.9749 -1.8902 -1.7709
  159SAPE   C2617698   2.708   5.092   3.402 -0.3242  0.2316 -0.0816
  159SAPE   H6R17699   2.614   5.087   3.459 -0.1497  1.8234  0.4029
  159SAPE   C2717700   2.823   5.165   3.470  0.4495 -0.5848  0.0393
  159SAPE   H7R17701   2.778   5.258   3.511 -1.0028 -1.0409 -0.4753
  159SAPE   H7S17702   2.909   5.198   3.407 -0.5618  0.1001 -1.0093
  159SAPE   C2817703   2.867   5.073   3.584 -0.0178 -0.2557 -0.6557
  159SAPE   H8R17704   2.916   4.981   3.550  0.8803  0.8063 -2.3681
  159SAPE   C2917705   2.858   5.100   3.714 -0.4203 -0.0730 -0.2422
  159SAPE   H9R17706   2.906   5.023   3.777 -1.5634 -0.0423  0.7032
  159SAPE  C21017707   2.808   5.221   3.801 -0.2722  0.1832  0.6965
  159SAPE  H10R17708   2.731   5.272   3.739 -0.1800 -0.7177 -0.1901
  159SAPE  H10S17709   2.888   5.295   3.824 -0.0223  0.4389 -0.8540
  159SAPE  C21117710   2.730   5.180   3.926 -0.7521  0.1635  0.0425
  159SAPE  H11R17711   2.620   5.173   3.918 -1.1345  3.9155  0.3373
  159SAPE  C21217712   2.782   5.129   4.040  0.4247 -0.0761 -0.6143
  159SAPE  H12R17713   2.713   5.104   4.122  1.3652  0.3172  0.3169
  159SAPE  C21317714   2.932   5.144   4.073  0.3669 -0.4350 -0.8643
  159SAPE  H13R17715   2.954   5.245   4.115  1.5557 -1.7578  1.9916
  159SAPE  H13S17716   3.002   5.145   3.987 -0.4343 -3.1507 -1.6473
  159SAPE  C21417717   2.970   5.032   4.173 -0.3674 -0.4531  0.0882
  159SAPE  H14R17718   3.017   4.942   4.130  1.9588  0.4286  0.6203
  159SAPE  C21517719   2.944   5.020   4.305  0.3415  0.1477 -0.3254
  159SAPE  H15R17720   2.986   4.937   4.363  1.7946  0.4763 -0.8729
  159SAPE  C21617721   2.869   5.124   4.383 -0.2686  0.1128  0.1815
  159SAPE  H16R17722   2.832   5.204   4.315  0.2458  0.8697  0.7668
  159SAPE  H16S17723   2.932   5.161   4.467  1.0258 -2.7663  0.6019
  159SAPE  C21717724   2.751   5.057   4.448  0.0896  0.1346  0.0539
  159SAPE  H17R17725   2.783   4.959   4.489 -0.4568 -0.2923 -0.5209
  159SAPE  H17S17726   2.673   5.042   4.371 -0.9377 -1.2200  1.3000
  159SAPE  C21817727   2.704   5.136   4.567  0.6508 -0.7557 -0.0377
  159SAPE  H18R17728   2.638   5.220   4.538  0.3159 -1.1884 -0.5501
  159SAPE  H18S17729   2.790   5.181   4.620  1.6447 -1.8985 -0.6328
  159SAPE  C21917730   2.631   5.049   4.665  0.1368 -0.3664 -0.2675
  159SAPE  H19R17731   2.603   5.110   4.754 -2.5827 -0.4148 -0.9755
  159SAPE  H19S17732   2.681   4.953   4.688  0.7125  0.4414  2.1525
  159SAPE  C22017733   2.491   5.009   4.603  0.7711 -0.0620 -0.0129
  159SAPE  H20R17734   2.422   4.981   4.686 -0.1184  0.6379 -0.5021
  159SAPE  H20S17735   2.501   4.927   4.529  0.2071 -1.1141  1.0338
  159SAPE  H20T17736   2.443   5.093   4.549 -0.7995  1.0705  2.9236
  159SAPE   C3317737   2.904   5.580   3.316 -0.5511 -0.4298  0.1683
  159SAPE   H3X17738   2.959   5.675   3.335 -0.8245 -0.4486  1.0931
  159SAPE   H3Y17739   2.962   5.486   3.326  0.9252  0.6644  2.4700
  159SAPE   C3417740   2.798   5.569   3.427 -0.4893 -0.1609 -0.1227
  159SAPE   H4X17741   2.845   5.593   3.525 -0.3166 -1.0813  0.0346
  159SAPE   H4Y17742   2.755   5.466   3.430 -1.2638  0.1144 -1.3781
  159SAPE   C3517743   2.681   5.666   3.409  0.0607  0.1766 -0.2791
  159SAPE   H5X17744   2.639   5.649   3.308  0.3420 -0.0586 -0.3586
  159SAPE   H5Y17745   2.730   5.765   3.422  1.8698 -0.8017  0.9360
  159SAPE   C3617746   2.567   5.644   3.513 -0.3160 -0.3832 -0.3472
  159SAPE   H6X17747   2.593   5.548   3.561  0.0779 -0.6503 -1.0800
  159SAPE   H6Y17748   2.468   5.639   3.461  0.2966  1.0551 -1.7679
  159SAPE   C3717749   2.553   5.741   3.627  0.3570 -0.6086 -0.6541
  159SAPE   H7X17750   2.644   5.734   3.691  0.3192  1.2162 -0.3541
  159SAPE   H7Y17751   2.468   5.709   3.691 -0.3332  0.3649 -1.0747
  159SAPE   C3817752   2.526   5.883   3.586 -0.8058 -0.0540 -0.8734
  159SAPE   H8X17753   2.459   5.896   3.499 -1.0788 -2.3514 -1.0497
  159SAPE   H8Y17754   2.620   5.940   3.568 -0.6456  0.3816  1.1099
  159SAPE   C3917755   2.465   5.971   3.694  0.3994  1.2641  0.4607
  159SAPE   H9X17756   2.361   5.933   3.706  0.8744 -0.1560  0.2709
  159SAPE   H9Y17757   2.457   6.078   3.665 -1.9983  2.1409  3.7617
  159SAPE  C31017758   2.524   5.950   3.835  0.3067 -0.7116  0.2646
  159SAPE  H10X17759   2.633   5.970   3.825  0.6314 -1.3602  2.0860
  159SAPE  H10Y17760   2.494   5.852   3.876 -1.5674 -0.1246  0.4034
  159SAPE  C31117761   2.463   6.047   3.942 -0.0212  0.3259  0.2610
  159SAPE  H11X17762   2.354   6.027   3.952 -0.1111  1.5027  2.0819
  159SAPE  H11Y17763   2.478   6.152   3.908  1.6940  0.0925  0.2323
  159SAPE  C31217764   2.540   6.037   4.081  0.0403 -0.5788  0.6919
  159SAPE  H12X17765   2.524   6.138   4.122 -2.6019 -0.5485 -0.2032
  159SAPE  H12Y17766   2.646   6.007   4.070 -0.2190 -0.7739 -1.8966
  159SAPE  C31317767   2.460   5.944   4.171 -0.2573  0.2568 -0.2582
  159SAPE  H13X17768   2.473   5.845   4.122  0.6137 -1.0847  2.4467
  159SAPE  H13Y17769   2.355   5.979   4.179  0.2849  2.1059 -0.6353
  159SAPE  C31417770   2.513   5.928   4.315 -0.1228  0.1957  0.1956
  159SAPE  H14X17771   2.519   6.022   4.374  2.8533 -1.0808  2.1556
  159SAPE  H14Y17772   2.619   5.896   4.315  0.3771  1.6787  2.1322
  159SAPE  C31517773   2.432   5.839   4.412  0.7608 -0.7513  0.2491
  159SAPE  H15X17774   2.408   5.747   4.355 -2.1888 -0.6208  1.1043
  159SAPE  H15Y17775   2.334   5.886   4.432  1.0435  0.1971 -0.5163
  159SAPE  C31617776   2.499   5.808   4.548  0.3643 -0.3938  0.2492
  159SAPE  H16X17777   2.420   5.769   4.616  0.0299  1.6077  1.0802
  159SAPE  H16Y17778   2.530   5.904   4.594 -2.1508  0.4571  0.2940
  159SAPE  C31717779   2.612   5.703   4.556 -0.5105 -0.8480  0.4133
  159SAPE  H17X17780   2.692   5.741   4.490  1.2116  0.1291  2.9062
  159SAPE  H17Y17781   2.566   5.609   4.517 -0.7776 -0.1099 -1.1152
  159SAPE  C31817782   2.666   5.671   4.695 -0.4279 -0.2225 -0.0810
  159SAPE  H18X17783   2.690   5.563   4.705 -1.3005 -0.2693  1.9144
  159SAPE  H18Y17784   2.590   5.695   4.772  0.3232  1.0357  0.2898
  159SAPE  H18Z17785   2.759   5.729   4.714 -1.4378  2.2778 -2.1656
  160SAPE     N17786   0.421   4.633   2.321  0.8534  0.4874  0.2407
  160SAPE   HN117787   0.415   4.659   2.221  1.4229  0.3159  0.1618
  160SAPE   HN217788   0.495   4.561   2.331  0.0560 -0.4160 -0.1609
  160SAPE   HN317789   0.331   4.587   2.345 -0.3717  2.0415 -1.1268
  160SAPE   C1217790   0.446   4.745   2.415 -0.1231  0.8454 -0.4643
  160SAPE  H12A17791   0.420   4.712   2.517  3.1663 -0.2111  0.1400
  160SAPE  H12B17792   0.376   4.829   2.392 -1.1511  0.0310 -0.4030
  160SAPE   C1117793   0.590   4.786   2.410 -0.5866 -0.1504  0.1675
  160SAPE  H11A17794   0.609   4.875   2.473 -2.1786  0.6768 -0.4588
  160SAPE  H11B17795   0.614   4.823   2.308  0.7144 -0.2700  0.4186
  160SAPE     P17796   0.816   4.688   2.505 -0.1639 -0.0133 -0.0204
  160SAPE   O1317797   0.889   4.566   2.462  0.4479 -0.1765 -0.0056
  160SAPE   O1417798   0.878   4.813   2.472 -0.1047 -0.0518  1.0334
  160SAPE   O1217799   0.671   4.676   2.444 -0.0566  0.0718  0.6159
  160SAPE   O1117800   0.802   4.683   2.661 -0.4483  0.0529 -0.0106
  160SAPE    C117801   0.715   4.580   2.715  0.4760  0.1140 -0.0168
  160SAPE    HA17802   0.634   4.641   2.759  0.2528  0.1759 -0.5106
  160SAPE    HB17803   0.674   4.507   2.642  2.0756 -0.6618 -0.1843
  160SAPE    C217804   0.787   4.488   2.811  0.1182  0.2253 -0.5702
  160SAPE    HS17805   0.717   4.403   2.827  0.8238 -0.1363  0.6859
  160SAPE   O2117806   0.822   4.551   2.936  0.0079  0.0802  0.4589
  160SAPE   C2117807   0.730   4.576   3.024  0.8964 -0.0237  0.4909
  160SAPE   O2217808   0.613   4.547   3.014 -0.6400 -0.4794 -0.6399
  160SAPE   C2217809   0.797   4.624   3.152 -0.4967 -0.2544  0.2113
  160SAPE   H2R17810   0.841   4.721   3.120 -0.3472 -0.0694  0.9648
  160SAPE   H2S17811   0.720   4.637   3.230  1.6001 -1.0731  2.5441
  160SAPE    C317812   0.916   4.428   2.755 -0.5230  0.6162 -0.3190
  160SAPE    HX17813   0.976   4.517   2.723  0.2446  0.8766  1.6964
  160SAPE    HY17814   0.885   4.370   2.666  0.0188  0.8459 -0.6664
  160SAPE   O3117815   0.994   4.350   2.852  0.6791 -0.3220  0.2576
  160SAPE   C3117816   1.102   4.411   2.908  0.3841 -0.4633 -0.0445
  160SAPE   O3217817   1.134   4.527   2.890  0.1269  0.3565 -0.3024
  160SAPE   C3217818   1.171   4.311   2.999  0.0942  0.4262  0.2101
  160SAPE   H2X17819   1.203   4.231   2.929  2.2433  1.1184  0.3086
  160SAPE   H2Y17820   1.095   4.266   3.066 -0.1717  0.0922 -0.3076
  160SAPE   C2317821   0.912   4.533   3.196  0.2055 -0.3394 -0.0668
  160SAPE   H3R17822   0.983   4.522   3.111 -0.1942 -0.2478 -0.4208
  160SAPE   H3S17823   0.864   4.435   3.219 -0.6213 -0.0646 -0.5714
  160SAPE   C2417824   0.985   4.571   3.330 -0.2647 -0.0839  0.0965
  160SAPE   H4R17825   1.043   4.664   3.313 -0.9599  0.4741  0.7134
  160SAPE   H4S17826   1.048   4.480   3.343  0.1275 -0.1009 -1.6664
  160SAPE   C2517827   0.884   4.586   3.443  0.5048 -0.1473  0.5293
  160SAPE   H5R17828   0.800   4.655   3.428  1.8911  1.9461  1.7906
  160SAPE   C2617829   0.910   4.552   3.569  0.0235  0.1145  0.1091
  160SAPE   H6R17830   0.832   4.552   3.647  1.1633 -3.2745  1.4087
  160SAPE   C2717831   1.027   4.470   3.615  0.0798  0.2243  0.0759
  160SAPE   H7R17832   1.087   4.431   3.530 -1.5049 -0.1863 -0.9004
  160SAPE   H7S17833   0.975   4.382   3.659 -1.0232  0.2608 -1.0960
  160SAPE   C2817834   1.108   4.539   3.722 -0.4663  0.6856  0.1468
  160SAPE   H8R17835   1.205   4.566   3.677 -0.9687  0.7708 -0.9123
  160SAPE   C2917836   1.082   4.600   3.841  0.0962  0.6993  0.6448
  160SAPE   H9R17837   1.158   4.653   3.900  2.2912 -1.4846 -0.0474
  160SAPE  C21017838   0.950   4.606   3.916 -0.6302 -0.1182 -0.2913
  160SAPE  H10R17839   0.883   4.519   3.903 -0.4543 -0.4881  1.1393
  160SAPE  H10S17840   0.897   4.699   3.884  1.1182  1.0129 -0.0627
  160SAPE  C21117841   0.962   4.627   4.067  0.3070 -0.4688 -0.3431
  160SAPE  H11R17842   0.948   4.731   4.099 -3.6068 -1.3475  1.4806
  160SAPE  C21217843   0.960   4.533   4.160  0.1308 -0.4397 -0.6836
  160SAPE  H12R17844   0.969   4.569   4.264  0.3133  0.1643 -0.9036
  160SAPE  C21317845   0.962   4.381   4.145 -0.8356  0.5924 -0.8088
  160SAPE  H13R17846   0.859   4.344   4.167 -0.8170  1.2586  0.5067
  160SAPE  H13S17847   1.031   4.341   4.222  2.3068  0.7113 -3.3914
  160SAPE  C21417848   1.016   4.311   4.026 -0.5345 -0.0510  0.0498
  160SAPE  H14R17849   1.063   4.377   3.952 -1.1364  0.5998  0.2419
  160SAPE  C21517850   1.019   4.177   4.017 -0.4431  0.2810 -0.3835
  160SAPE  H15R17851   1.058   4.128   3.927 -2.7656 -1.1527 -0.6892
  160SAPE  C21617852   0.970   4.078   4.118  0.5144 -0.0932 -0.3311
  160SAPE  H16R17853   0.938   3.991   4.057 -0.5868  0.5660 -0.7409
  160SAPE  H16S17854   0.882   4.120   4.173 -1.4011 -0.4849 -2.9271
  160SAPE  C21717855   1.083   4.036   4.231  0.3867  0.0264  0.7154
  160SAPE  H17R17856   1.115   4.128   4.284  2.1507  0.1766 -0.5161
  160SAPE  H17S17857   1.174   4.006   4.175 -0.3899  0.5205 -0.9022
  160SAPE  C21817858   1.023   3.921   4.316 -0.1017  0.2471 -0.3916
  160SAPE  H18R17859   1.115   3.894   4.373 -0.1672  2.2095  0.7209
  160SAPE  H18S17860   0.984   3.844   4.246 -1.7186 -0.1454  0.8765
  160SAPE  C21917861   0.929   3.953   4.420  0.1737 -0.2562  0.2957
  160SAPE  H19R17862   0.897   3.864   4.477  1.0976 -1.6237 -1.2329
  160SAPE  H19S17863   0.840   3.997   4.369  0.2669  0.4935  0.7580
  160SAPE  C22017864   0.969   4.060   4.519  0.1360 -0.0352  0.3129
  160SAPE  H20R17865   0.989   4.153   4.462 -1.8561  0.2215 -0.0215
  160SAPE  H20S17866   1.064   4.032   4.570  0.4434 -0.5498 -0.5311
  160SAPE  H20T17867   0.883   4.081   4.586 -1.6187  1.4573 -2.2484
  160SAPE   C3317868   1.289   4.363   3.074  0.2255 -1.1603 -0.3739
  160SAPE   H3X17869   1.270   4.445   3.146 -0.2576  1.7116 -3.4687
  160SAPE   H3Y17870   1.363   4.392   2.996  0.3151 -0.5959 -0.0792
  160SAPE   C3417871   1.360   4.244   3.138  0.2774 -0.1039  0.0003
  160SAPE   H4X17872   1.363   4.168   3.057 -0.4076  0.3152 -0.4293
  160SAPE   H4Y17873   1.301   4.210   3.225 -0.0913  2.1974  0.7048
  160SAPE   C3517874   1.505   4.269   3.180  0.1734 -0.0690 -0.2717
  160SAPE   H5X17875   1.561   4.299   3.089  2.6293 -0.5233  0.9855
  160SAPE   H5Y17876   1.552   4.173   3.212 -2.8703 -1.1814  1.2740
  160SAPE   C3617877   1.530   4.363   3.293 -0.3595  0.4656  0.0262
  160SAPE   H6X17878   1.508   4.471   3.278  0.2344  1.3012  3.9032
  160SAPE   H6Y17879   1.632   4.361   3.338  0.5268  0.6721 -1.8673
  160SAPE   C3717880   1.442   4.330   3.415  0.1022 -0.8280 -0.7314
  160SAPE   H7X17881   1.436   4.219   3.426 -0.5741 -0.9442 -2.1274
  160SAPE   H7Y17882   1.338   4.362   3.391  0.4348  1.2019  0.3345
  160SAPE   C3817883   1.485   4.404   3.546 -0.7046  0.1345  0.3011
  160SAPE   H8X17884   1.438   4.505   3.545  2.1986  1.5840 -0.0701
  160SAPE   H8Y17885   1.594   4.422   3.545 -0.4128 -1.3711 -1.7573
  160SAPE   C3917886   1.444   4.315   3.667 -0.6610 -0.6624 -0.5107
  160SAPE   H9X17887   1.511   4.227   3.670 -0.5383 -0.5603  1.3662
  160SAPE   H9Y17888   1.336   4.293   3.659 -0.6427 -1.1779  0.4571
  160SAPE  C31017889   1.467   4.394   3.807 -0.3676  0.2323  1.2488
  160SAPE  H10X17890   1.407   4.487   3.812 -0.4026  0.2212  1.0304
  160SAPE  H10Y17891   1.574   4.426   3.808 -0.1483 -0.2802 -1.0496
  160SAPE  C31117892   1.429   4.312   3.929  0.2688 -0.1268  0.7013
  160SAPE  H11X17893   1.513   4.240   3.940  0.7128  0.4746  1.3495
  160SAPE  H11Y17894   1.331   4.262   3.912  0.5709 -0.1838 -1.0638
  160SAPE  C31217895   1.422   4.386   4.054 -0.0900 -0.6500 -0.0012
  160SAPE  H12X17896   1.336   4.454   4.041  1.1518  1.0918  0.5958
  160SAPE  H12Y17897   1.512   4.447   4.078 -0.0300 -0.9487  0.5595
  160SAPE  C31317898   1.377   4.312   4.187 -0.5864 -0.2779 -0.6847
  160SAPE  H13X17899   1.467   4.254   4.214  1.1224  2.1228 -0.9192
  160SAPE  H13Y17900   1.295   4.242   4.161 -1.3789  0.5159 -0.3809
  160SAPE  C31417901   1.339   4.393   4.309  0.5642  0.7365 -0.2192
  160SAPE  H14X17902   1.257   4.457   4.270  0.6825 -0.1168 -1.9628
  160SAPE  H14Y17903   1.419   4.467   4.333  1.6085 -0.1014 -1.0257
  160SAPE  C31517904   1.289   4.315   4.426  0.5836  0.1317  0.6549
  160SAPE  H15X17905   1.187   4.279   4.402  0.8392  0.3033 -0.7708
  160SAPE  H15Y17906   1.287   4.377   4.519  0.9720 -0.1510  0.8553
  160SAPE  C31617907   1.374   4.200   4.478 -1.0286  0.0184  0.0330
  160SAPE  H16X17908   1.394   4.128   4.395  0.0311  0.6697 -0.2930
  160SAPE  H16Y17909   1.316   4.145   4.555 -1.0882 -0.3945 -0.3040
  160SAPE  C31717910   1.506   4.246   4.551  0.4701  0.1766 -0.7690
  160SAPE  H17X17911   1.473   4.303   4.640 -2.1699  0.4895 -1.8429
  160SAPE  H17Y17912   1.564   4.308   4.479  2.2667  0.5384  0.9255
  160SAPE  C31817913   1.579   4.120   4.596 -0.1784 -0.0354 -0.3261
  160SAPE  H18X17914   1.541   4.072   4.689 -0.9745 -0.8586 -1.0548
  160SAPE  H18Y17915   1.686   4.131   4.626 -0.0054 -2.6919  0.3197
  160SAPE  H18Z17916   1.574   4.036   4.523 -2.5700  0.8468 -1.2397
  161SAPE     N17917   0.922   4.873   2.785  0.5110 -0.0532 -0.2285
  161SAPE   HN117918   0.966   4.860   2.878  0.9809  0.7639 -0.3324
  161SAPE   HN217919   0.902   4.774   2.760  1.8889 -0.3320 -0.3259
  161SAPE   HN317920   0.994   4.912   2.721  0.8956 -0.7050 -0.2110
  161SAPE   C1217921   0.805   4.961   2.803  0.3044  0.0336  0.0359
  161SAPE  H12A17922   0.734   4.947   2.719  1.1598  0.3636 -0.7552
  161SAPE  H12B17923   0.839   5.067   2.804  2.2519 -0.5123 -1.8785
  161SAPE   C1117924   0.729   4.935   2.934 -0.3407  0.2248 -0.8890
  161SAPE  H11A17925   0.694   4.830   2.928  0.0949 -0.0316  0.6026
  161SAPE  H11B17926   0.637   4.998   2.936 -0.8543 -0.5257 -0.0702
  161SAPE     P17927   0.866   5.077   3.110  0.6241  0.3894 -0.0604
  161SAPE   O1317928   0.982   5.102   3.030 -0.4505 -0.3395  0.4345
  161SAPE   O1417929   0.771   5.187   3.126  0.6670 -0.1484  0.6595
  161SAPE   O1217930   0.797   4.940   3.060 -0.1868  0.0210  0.3580
  161SAPE   O1117931   0.922   5.037   3.252 -0.1692 -0.0950  0.1568
  161SAPE    C117932   0.867   4.942   3.334 -0.1154 -0.4670 -0.4630
  161SAPE    HA17933   0.757   4.946   3.325 -0.0560 -0.6853 -1.3871
  161SAPE    HB17934   0.901   4.843   3.296  1.2393  0.8395 -2.9164
  161SAPE    C217935   0.897   4.964   3.485 -0.5906 -0.0685  0.1684
  161SAPE    HS17936   0.821   4.902   3.537 -0.9616  0.9565  0.8701
  161SAPE   O2117937   0.883   5.105   3.521 -0.4927  0.2111  0.1586
  161SAPE   C2117938   0.773   5.157   3.511  0.3921 -0.3784  0.1524
  161SAPE   O2217939   0.668   5.107   3.469  0.2025  0.2644 -0.0640
  161SAPE   C2217940   0.777   5.307   3.547 -0.1412  0.3590 -0.2636
  161SAPE   H2R17941   0.884   5.335   3.536 -0.1315  0.9750  1.2056
  161SAPE   H2S17942   0.714   5.357   3.470  0.9242  2.0977 -0.0634
  161SAPE    C317943   1.035   4.916   3.532 -0.3819  0.5453 -0.4242
  161SAPE    HX17944   1.110   4.988   3.493 -0.9854  0.8096 -1.1300
  161SAPE    HY17945   1.058   4.822   3.477 -0.1558  1.5336 -2.1003
  161SAPE   O3117946   1.038   4.893   3.675 -0.2287 -0.0043 -0.3908
  161SAPE   C3117947   1.080   5.001   3.747 -0.0176  0.1042 -0.2814
  161SAPE   O3217948   1.120   5.106   3.701  0.0060 -0.5160  0.7415
  161SAPE   C3217949   1.086   4.968   3.891 -0.3514  0.4735 -0.7218
  161SAPE   H2X17950   1.173   4.901   3.904  0.0726  0.8656 -1.4620
  161SAPE   H2Y17951   1.008   4.898   3.927  0.7156 -1.0653 -1.3282
  161SAPE   C2317952   0.728   5.320   3.689 -0.0566 -1.3161 -0.0275
  161SAPE   H3R17953   0.636   5.259   3.702 -0.5992 -0.9130 -1.7196
  161SAPE   H3S17954   0.679   5.419   3.700 -0.7789 -1.6482 -0.1669
  161SAPE   C2417955   0.838   5.309   3.796  0.0052  0.1108 -0.5998
  161SAPE   H4R17956   0.905   5.397   3.800  2.0105 -1.4076  1.5860
  161SAPE   H4S17957   0.889   5.217   3.762  1.5934  0.5642  0.4482
  161SAPE   C2517958   0.785   5.298   3.939 -0.2929 -0.0826  0.5079
  161SAPE   H5R17959   0.794   5.389   4.001 -1.7503  0.8707 -0.6070
  161SAPE   C2617960   0.731   5.184   3.990  0.3841 -0.0142 -0.3125
  161SAPE   H6R17961   0.705   5.175   4.096  0.3221 -0.1829 -0.3415
  161SAPE   C2717962   0.726   5.047   3.922  0.6822 -0.0414 -0.2726
  161SAPE   H7R17963   0.781   4.976   3.987  2.0913  0.8229 -0.4745
  161SAPE   H7S17964   0.777   5.056   3.823 -1.2088  1.3559 -1.1942
  161SAPE   C2817965   0.579   5.002   3.901 -0.9078 -0.0612 -0.2751
  161SAPE   H8R17966   0.539   5.023   3.801 -1.1470 -0.1395 -0.1958
  161SAPE   C2917967   0.527   4.907   3.981 -0.3819 -0.1600  0.2465
  161SAPE   H9R17968   0.423   4.877   3.963 -0.1347 -0.6103 -0.4840
  161SAPE  C21017969   0.589   4.842   4.104  0.8558  0.1439 -0.3788
  161SAPE  H10R17970   0.688   4.888   4.128  1.6648 -2.3097  1.4432
  161SAPE  H10S17971   0.603   4.732   4.091 -2.1349 -0.5671  1.4356
  161SAPE  C21117972   0.489   4.850   4.215 -0.8388 -0.3550  0.2981
  161SAPE  H11R17973   0.381   4.855   4.192 -1.2427  0.7448  2.1584
  161SAPE  C21217974   0.530   4.859   4.343  0.5826  0.8521  0.4746
  161SAPE  H12R17975   0.446   4.863   4.415 -1.3133  0.5986 -1.6005
  161SAPE  C21317976   0.666   4.857   4.414  0.5462 -0.8254  0.4696
  161SAPE  H13R17977   0.667   4.924   4.503  3.6020 -0.9752  0.6592
  161SAPE  H13S17978   0.735   4.921   4.355 -0.5401  0.2400  0.3056
  161SAPE  C21417979   0.728   4.720   4.441  0.0295 -0.7439 -0.2187
  161SAPE  H14R17980   0.821   4.709   4.383  1.4450  2.7073  1.1974
  161SAPE  C21517981   0.693   4.640   4.544  0.2799  0.1548 -0.2892
  161SAPE  H15R17982   0.738   4.542   4.565  1.5597  1.1882  2.1495
  161SAPE  C21617983   0.567   4.662   4.616  0.1055  0.0923 -0.9806
  161SAPE  H16R17984   0.484   4.597   4.582 -1.2943  0.3223  1.7300
  161SAPE  H16S17985   0.521   4.762   4.598 -1.4794 -0.3859  0.1874
  161SAPE  C21717986   0.589   4.642   4.773 -0.3604  0.4528  0.0032
  161SAPE  H17R17987   0.514   4.713   4.815 -0.7191  0.9664 -1.4646
  161SAPE  H17S17988   0.685   4.694   4.789  0.4475 -0.8653 -0.4341
  161SAPE  C21817989   0.590   4.502   4.832  0.8778 -0.5765 -0.0968
  161SAPE  H18R17990   0.611   4.515   4.940  0.4337  0.2616 -0.0998
  161SAPE  H18S17991   0.677   4.446   4.793 -1.1631 -2.3169 -2.4895
  161SAPE  C21917992   0.459   4.424   4.813 -0.0633 -0.0943  0.8554
  161SAPE  H19R17993   0.450   4.410   4.703  2.2122  0.6425  0.5221
  161SAPE  H19S17994   0.369   4.484   4.838  0.2696  1.2388 -0.9041
  161SAPE  C22017995   0.457   4.291   4.885  0.2342 -0.1828  0.4863
  161SAPE  H20R17996   0.532   4.226   4.835  0.2961 -1.1900  1.8412
  161SAPE  H20S17997   0.361   4.236   4.877 -1.4222  2.4499  1.2802
  161SAPE  H20T17998   0.485   4.317   4.989 -0.8478  1.8386  0.3304
  161SAPE   C3317999   1.106   5.094   3.986  0.4237 -0.0854  0.1199
  161SAPE   H3X18000   1.060   5.187   3.947  0.6051 -0.5306 -1.2173
  161SAPE   H3Y18001   1.214   5.115   3.976  0.3640 -0.6844 -2.6138
  161SAPE   C3418002   1.066   5.073   4.129  0.9071 -0.2898 -0.3190
  161SAPE   H4X18003   1.106   4.973   4.156 -0.2942 -0.7841 -0.3169
  161SAPE   H4Y18004   0.955   5.072   4.137  0.9556  0.1280  0.5237
  161SAPE   C3518005   1.120   5.192   4.211  0.3054 -0.2386 -0.1279
  161SAPE   H5X18006   1.165   5.268   4.143 -0.2149  0.7799  0.6355
  161SAPE   H5Y18007   1.205   5.159   4.274  0.7236  1.3323  0.1659
  161SAPE   C3618008   1.005   5.256   4.292  0.0424 -0.5057  0.1475
  161SAPE   H6X18009   0.929   5.276   4.213  0.0013 -1.2646 -0.0150
  161SAPE   H6Y18010   1.045   5.351   4.332  0.0999 -0.4282 -0.0917
  161SAPE   C3718011   0.965   5.157   4.399  0.4540  0.3288 -0.1521
  161SAPE   H7X18012   1.050   5.147   4.470  1.7380  1.4700 -1.4565
  161SAPE   H7Y18013   0.943   5.057   4.357 -0.9104  0.6925 -0.3798
  161SAPE   C3818014   0.850   5.212   4.481  0.2126  0.1231  0.2525
  161SAPE   H8X18015   0.754   5.197   4.426 -1.5017 -0.8395  3.2216
  161SAPE   H8Y18016   0.864   5.318   4.512  0.9654  0.4734 -1.2226
  161SAPE   C3918017   0.828   5.130   4.611  0.6307 -0.1478 -0.1645
  161SAPE   H9X18018   0.899   5.163   4.690  0.6880 -0.8911  0.1033
  161SAPE   H9Y18019   0.849   5.022   4.594  0.8140 -0.4440  1.7587
  161SAPE  C31018020   0.688   5.139   4.673  0.4968  0.0143 -0.2390
  161SAPE  H10X18021   0.610   5.105   4.602  0.3340 -2.0344  0.8196
  161SAPE  H10Y18022   0.664   5.240   4.711  0.1674  0.0428 -0.5242
  161SAPE  C31118023   0.686   5.045   4.798  0.1395  0.2352 -0.4448
  161SAPE  H11X18024   0.779   5.052   4.858  0.8634  1.3788 -1.6505
  161SAPE  H11Y18025   0.677   4.942   4.758  2.4711  0.3189 -1.3603
  161SAPE  C31218026   0.560   5.074   4.879 -0.2901 -0.8665  0.4064
  161SAPE  H12X18027   0.467   5.034   4.831 -0.8910  0.4266  0.4466
  161SAPE  H12Y18028   0.550   5.185   4.880  0.1583 -0.8138 -0.1563
  161SAPE  C31318029   0.560   5.024   5.025  0.2121 -0.0143  0.3759
  161SAPE  H13X18030   0.472   5.065   5.080 -0.3505  0.8094 -1.0699
  161SAPE  H13Y18031   0.654   5.065   5.067 -0.0408  0.0841  0.8515
  161SAPE  C31418032   0.553   4.873   5.047  0.1765 -0.7472 -0.3259
  161SAPE  H14X18033   0.632   4.819   4.991  0.1027 -1.2716  0.0691
  161SAPE  H14Y18034   0.459   4.843   4.996 -0.3906 -2.4661  1.6357
  161SAPE  C31518035   0.570   4.842   5.192  0.3327 -0.2244 -0.2078
  161SAPE  H15X18036   0.500   4.909   5.246  2.3780  2.1639 -0.3692
  161SAPE  H15Y18037   0.670   4.868   5.234  1.3324  0.2443 -2.6903
  161SAPE  C31618038   0.527   4.697   5.235 -0.4427  0.6306  0.9243
  161SAPE  H16X18039   0.600   4.627   5.188 -1.4801  0.8630 -1.1232
  161SAPE  H16Y18040   0.424   4.684   5.197  0.3719 -0.7068 -0.9883
  161SAPE  C31718041   0.522   4.685   5.389 -0.4816  0.4486  0.3646
  161SAPE  H17X18042   0.626   4.680   5.425 -0.1858  1.7311 -0.2772
  161SAPE  H17Y18043   0.471   4.588   5.409 -0.4789 -0.4113 -3.1687
  161SAPE  C31818044   0.433   4.781   5.465 -1.1676  0.0025  0.0598
  161SAPE  H18X18045   0.466   4.887   5.456  1.1641 -0.6427  0.2631
  161SAPE  H18Y18046   0.416   4.751   5.570 -2.2297 -1.3756 -0.4752
  161SAPE  H18Z18047   0.328   4.782   5.430 -1.0564  0.7303 -0.2683
  162SAPE     N18048   6.666   2.468   2.301 -0.2548 -0.6899  0.7598
  162SAPE   HN118049   6.760   2.430   2.280 -0.1266  0.4893 -1.1156
  162SAPE   HN218050   6.653   2.548   2.235 -1.7414  0.3063  2.1803
  162SAPE   HN318051   6.658   2.509   2.396 -1.0593  0.5909  0.1694
  162SAPE   C1218052   6.567   2.363   2.277  0.3095  0.0190  0.1909
  162SAPE  H12A18053   6.599   2.318   2.180  1.9199 -0.3226  0.8619
  162SAPE  H12B18054   6.469   2.416   2.277  1.0518  1.4534  1.4170
  162SAPE   C1118055   6.580   2.269   2.400  0.6671  0.5517 -0.0040
  162SAPE  H11A18056   6.584   2.317   2.500  1.4501  1.8311 -0.6301
  162SAPE  H11B18057   6.660   2.193   2.390  0.5401  0.4335 -0.1218
  162SAPE     P18058   6.315   2.237   2.421  0.0773  0.4209 -0.1441
  162SAPE   O1318059   6.303   2.360   2.509 -0.1807 -0.0482  0.1561
  162SAPE   O1418060   6.262   2.249   2.284  0.0276  0.3156  0.5126
  162SAPE   O1218061   6.461   2.192   2.415  0.4871  0.3061  0.4463
  162SAPE   O1118062   6.254   2.116   2.497  0.2495 -0.5824  0.2247
  162SAPE    C118063   6.257   2.102   2.641  0.1531  0.0046  0.3229
  162SAPE    HA18064   6.282   1.995   2.652 -2.7013 -1.0535 -2.1012
  162SAPE    HB18065   6.343   2.149   2.694  0.8309 -0.3120 -0.4762
  162SAPE    C218066   6.127   2.132   2.717 -0.5289 -0.3509 -0.0250
  162SAPE    HS18067   6.102   2.239   2.702  2.2791  0.6404  1.5800
  162SAPE   O2118068   6.138   2.118   2.860  0.2023  0.4277 -0.4922
  162SAPE   C2118069   6.162   2.228   2.932 -0.1340 -0.7528 -0.3735
  162SAPE   O2218070   6.187   2.338   2.884  0.1746 -0.5915  1.0225
  162SAPE   C2218071   6.150   2.189   3.080  0.6481 -0.2650  0.7436
  162SAPE   H2R18072   6.165   2.282   3.140  0.7825 -0.0396  0.3628
  162SAPE   H2S18073   6.051   2.142   3.097  0.7587 -0.3360  1.1994
  162SAPE    C318074   6.017   2.045   2.663  0.0123 -0.6870 -0.2501
  162SAPE    HX18075   6.061   1.943   2.663 -1.6804 -1.4699 -1.4632
  162SAPE    HY18076   5.985   2.067   2.559 -1.3167 -0.3723  0.1925
  162SAPE   O3118077   5.905   2.056   2.748 -0.3886 -0.0926 -0.5302
  162SAPE   C3118078   5.856   1.944   2.786  0.4681  0.0453  0.1129
  162SAPE   O3218079   5.891   1.829   2.753 -0.6345  0.3489 -0.3584
  162SAPE   C3218080   5.733   1.971   2.863 -0.0057 -0.4935  0.2002
  162SAPE   H2X18081   5.683   2.060   2.819  1.0406  0.0617  0.1008
  162SAPE   H2Y18082   5.772   1.982   2.966  3.4802 -1.8765 -0.8399
  162SAPE   C2318083   6.251   2.085   3.131 -0.1691 -0.0527  0.5772
  162SAPE   H3R18084   6.259   1.993   3.069  0.2824 -0.3530  1.0723
  162SAPE   H3S18085   6.214   2.056   3.232 -0.9589  2.0281  0.9300
  162SAPE   C2418086   6.389   2.142   3.158  0.0719 -0.3207 -0.3651
  162SAPE   H4R18087   6.372   2.233   3.219 -1.3615 -0.1998 -0.8957
  162SAPE   H4S18088   6.432   2.182   3.064  3.8220  1.3440  1.8367
  162SAPE   C2518089   6.490   2.047   3.212 -0.1644  0.1727 -0.6386
  162SAPE   H5R18090   6.548   1.993   3.136  1.2059  0.6961 -0.0014
  162SAPE   C2618091   6.515   2.008   3.344 -0.4227  0.1082 -0.1925
  162SAPE   H6R18092   6.582   1.922   3.362 -1.0615 -0.2613  0.4196
  162SAPE   C2718093   6.425   2.052   3.455  1.0290 -0.0314 -0.3389
  162SAPE   H7R18094   6.352   2.122   3.411  1.2872 -0.8895 -2.2220
  162SAPE   H7S18095   6.481   2.108   3.533 -0.7790  1.8810 -0.3262
  162SAPE   C2818096   6.348   1.935   3.511 -0.0333  0.0409 -0.5602
  162SAPE   H8R18097   6.277   1.885   3.443 -0.3631 -0.8130  0.3872
  162SAPE   C2918098   6.370   1.869   3.630  0.4578 -0.4030 -0.5146
  162SAPE   H9R18099   6.294   1.799   3.668  0.5669  0.2067  0.8628
  162SAPE  C21018100   6.462   1.917   3.738  0.4194 -0.3786  0.7892
  162SAPE  H10R18101   6.489   2.025   3.734  1.9752 -0.7684 -0.2123
  162SAPE  H10S18102   6.555   1.862   3.711 -0.0366 -0.9669  0.3954
  162SAPE  C21118103   6.413   1.890   3.871  0.3994  0.6422 -0.3236
  162SAPE  H11R18104   6.409   1.784   3.898 -2.3544 -0.1738 -3.2464
  162SAPE  C21218105   6.364   1.985   3.964  0.8334  0.5296  0.4751
  162SAPE  H12R18106   6.315   1.947   4.054  0.3059 -1.3587 -0.5499
  162SAPE  C21318107   6.347   2.129   3.949 -0.1683 -0.3544 -0.4453
  162SAPE  H13R18108   6.252   2.169   3.992  0.6010  1.6913 -0.5726
  162SAPE  H13S18109   6.354   2.162   3.843  1.1660 -1.2924 -0.6670
  162SAPE  C21418110   6.457   2.194   4.025 -0.6994 -1.1374  0.3071
  162SAPE  H14R18111   6.549   2.197   3.966 -1.6424 -0.8443 -1.2133
  162SAPE  C21518112   6.447   2.260   4.140  0.8787 -0.1255  0.6986
  162SAPE  H15R18113   6.534   2.317   4.178  0.1932  2.2610 -1.0784
  162SAPE  C21618114   6.316   2.289   4.212  0.5835  0.1020 -0.8732
  162SAPE  H16R18115   6.229   2.230   4.175  1.4336 -1.6233 -0.2340
  162SAPE  H16S18116   6.281   2.390   4.181 -0.6261 -0.3866 -1.1661
  162SAPE  C21718117   6.321   2.257   4.366  0.0591 -0.1901  0.1087
  162SAPE  H17R18118   6.230   2.304   4.410 -0.0399  0.4534 -0.7419
  162SAPE  H17S18119   6.409   2.309   4.408  2.7785 -2.3175 -2.5198
  162SAPE  C21818120   6.334   2.108   4.397  0.1840 -0.1698  0.5913
  162SAPE  H18R18121   6.420   2.061   4.344 -0.3982 -0.4815 -0.0961
  162SAPE  H18S18122   6.243   2.056   4.360 -0.4849  1.4207 -0.1128
  162SAPE  C21918123   6.356   2.076   4.543 -0.3773 -0.2848  0.7992
  162SAPE  H19R18124   6.451   2.123   4.575 -0.0261  1.3158 -2.2517
  162SAPE  H19S18125   6.363   1.965   4.543 -0.5855 -0.4063 -2.7498
  162SAPE  C22018126   6.263   2.130   4.643 -1.3744 -0.1312  0.4001
  162SAPE  H20R18127   6.288   2.090   4.744 -0.1389  0.5328  0.3716
  162SAPE  H20S18128   6.155   2.110   4.624 -1.3917 -1.7805  2.0137
  162SAPE  H20T18129   6.269   2.240   4.654  1.7171 -0.2853  1.0275
  162SAPE   C3318130   5.627   1.847   2.859 -0.0585  0.4209 -0.3799
  162SAPE   H3X18131   5.662   1.743   2.878 -2.6416 -0.2564  1.1348
  162SAPE   H3Y18132   5.606   1.837   2.750 -0.7701 -1.5497 -0.0978
  162SAPE   C3418133   5.493   1.874   2.936 -0.1583 -0.9391 -0.5650
  162SAPE   H4X18134   5.415   1.807   2.894 -0.7875  0.0340 -1.0007
  162SAPE   H4Y18135   5.465   1.978   2.908 -1.4657 -1.1791 -0.2326
  162SAPE   C3518136   5.504   1.863   3.088  0.3415 -0.1015  0.6806
  162SAPE   H5X18137   5.589   1.928   3.117 -0.1371  0.2082  1.4406
  162SAPE   H5Y18138   5.537   1.765   3.128  0.2644 -0.1808  0.5500
  162SAPE   C3618139   5.370   1.904   3.158 -0.2271  0.0973  0.6891
  162SAPE   H6X18140   5.291   1.870   3.088  1.9914  0.5008 -2.1734
  162SAPE   H6Y18141   5.361   2.014   3.171 -2.4782  0.3583 -2.1329
  162SAPE   C3718142   5.338   1.835   3.293  0.2608  0.3733  0.1494
  162SAPE   H7X18143   5.422   1.770   3.326 -0.5847 -1.0780 -0.4831
  162SAPE   H7Y18144   5.250   1.771   3.269  0.4328  0.5889 -1.1318
  162SAPE   C3818145   5.308   1.936   3.398  0.3806 -0.4076 -0.1784
  162SAPE   H8X18146   5.204   1.974   3.394  0.1736 -0.5879  2.3528
  162SAPE   H8Y18147   5.375   2.023   3.380 -1.7976  1.2206 -0.7745
  162SAPE   C3918148   5.340   1.873   3.541  0.0151  0.4646 -0.7629
  162SAPE   H9X18149   5.436   1.817   3.535  0.5603  1.5519 -2.9489
  162SAPE   H9Y18150   5.263   1.800   3.576  2.9523 -2.0669  0.9595
  162SAPE  C31018151   5.375   1.979   3.652 -0.3571  0.3869  0.6998
  162SAPE  H10X18152   5.282   2.040   3.647 -1.6016 -1.4918 -1.8965
  162SAPE  H10Y18153   5.459   2.042   3.616 -1.3504  0.0796 -2.5424
  162SAPE  C31118154   5.384   1.914   3.782 -0.5257  0.6061 -0.7262
  162SAPE  H11X18155   5.487   1.871   3.775 -0.1733  1.1637  0.7103
  162SAPE  H11Y18156   5.324   1.822   3.796  2.3420 -1.1578  0.9836
  162SAPE  C31218157   5.376   2.007   3.902 -0.7532  0.0864  1.0328
  162SAPE  H12X18158   5.274   2.039   3.931 -1.1295 -1.4596  1.4782
  162SAPE  H12Y18159   5.429   2.100   3.871  1.2032 -1.5306 -0.8311
  162SAPE  C31318160   5.434   1.945   4.032 -0.3015 -0.5421  0.6717
  162SAPE  H13X18161   5.527   1.896   3.996 -0.1870  0.7581 -0.8614
  162SAPE  H13Y18162   5.371   1.864   4.077 -0.2646  0.1640  2.0600
  162SAPE  C31418163   5.465   2.047   4.139  0.0787 -0.4681  0.6819
  162SAPE  H14X18164   5.370   2.105   4.145  0.8661  1.2801 -2.2331
  162SAPE  H14Y18165   5.546   2.117   4.112  1.5652 -1.3059  2.6646
  162SAPE  C31518166   5.521   1.987   4.265 -0.2951 -0.0586 -0.0029
  162SAPE  H15X18167   5.599   1.913   4.235 -0.0550 -0.2598  1.0585
  162SAPE  H15Y18168   5.438   1.923   4.302  0.0518  0.0072  0.9254
  162SAPE  C31618169   5.565   2.073   4.378 -0.3264  0.5140  0.5759
  162SAPE  H16X18170   5.652   2.125   4.332 -0.4535  1.0333  0.9230
  162SAPE  H16Y18171   5.615   2.007   4.452  2.1890  2.5535  0.8364
  162SAPE  C31718172   5.454   2.149   4.441  0.7795 -0.1182  0.0870
  162SAPE  H17X18173   5.370   2.083   4.472 -0.8020  1.1534 -1.2750
  162SAPE  H17Y18174   5.400   2.216   4.371  1.0662 -0.0555 -0.0733
  162SAPE  C31818175   5.514   2.243   4.555  0.0998  0.2225 -0.3562
  162SAPE  H18X18176   5.549   2.174   4.635 -1.8936 -0.5966 -0.1411
  162SAPE  H18Y18177   5.429   2.308   4.587  1.2083  0.1924  3.0880
  162SAPE  H18Z18178   5.590   2.317   4.522  1.2159 -0.9215 -0.4141
  163SAPE     N18179   6.320   0.163   2.821 -0.6389  0.4566 -0.3168
  163SAPE   HN118180   6.315   0.240   2.751  0.5336 -1.0809 -2.1919
  163SAPE   HN218181   6.409   0.114   2.798 -0.0889  0.9230  0.7221
  163SAPE   HN318182   6.245   0.093   2.810 -2.7009  2.2894  1.0496
  163SAPE   C1218183   6.328   0.228   2.952 -0.1753  0.3095 -0.7462
  163SAPE  H12A18184   6.295   0.152   3.026 -1.2080  2.3882  1.0145
  163SAPE  H12B18185   6.254   0.311   2.951  0.6369  1.0407 -0.8840
  163SAPE   C1118186   6.474   0.283   2.967  0.7633  0.5049  0.2300
  163SAPE  H11A18187   6.459   0.342   3.060 -2.1639 -1.4453  1.1202
  163SAPE  H11B18188   6.499   0.344   2.877 -2.8765  1.7491 -0.0924
  163SAPE     P18189   6.665   0.101   2.907  0.2156  0.2081  0.0079
  163SAPE   O1318190   6.588   0.081   2.781  0.0731 -0.1290 -0.5079
  163SAPE   O1418191   6.794   0.168   2.908  0.5585 -0.1289 -0.0440
  163SAPE   O1218192   6.568   0.180   3.002 -0.0649 -0.2176 -0.2850
  163SAPE   O1118193   6.684  -0.039   2.983 -0.0008  0.2567 -0.1657
  163SAPE    C118194   6.586  -0.124   3.040 -0.5538 -0.5860 -0.0007
  163SAPE    HA18195   6.489  -0.097   2.994 -2.2897 -4.2766  1.1041
  163SAPE    HB18196   6.612  -0.231   3.024  0.1441 -0.7822  2.0996
  163SAPE    C218197   6.572  -0.101   3.191 -0.1986 -0.0221 -0.6803
  163SAPE    HS18198   6.528  -0.000   3.206 -0.4622  0.1994 -2.7093
  163SAPE   O2118199   6.704  -0.109   3.255  0.0341  0.2397  0.4793
  163SAPE   C2118200   6.729  -0.016   3.346 -0.0735  0.8399  0.3342
  163SAPE   O2218201   6.656   0.072   3.379  0.5698 -0.1292  0.2383
  163SAPE   C2218202   6.857  -0.040   3.424  0.5877  0.3347  0.1509
  163SAPE   H2R18203   6.917  -0.110   3.361  0.1956  1.0214 -1.0115
  163SAPE   H2S18204   6.908   0.058   3.436 -0.6302  0.8502  1.2336
  163SAPE    C318205   6.484  -0.223   3.248  0.4061  0.6910  0.0032
  163SAPE    HX18206   6.545  -0.314   3.264  1.0643  1.0251 -0.5612
  163SAPE    HY18207   6.407  -0.249   3.173  1.2022 -1.3272 -0.1804
  163SAPE   O3118208   6.408  -0.184   3.373  0.2482  0.3567  0.0569
  163SAPE   C3118209   6.320  -0.091   3.366 -0.7622 -0.0697 -0.1295
  163SAPE   O3218210   6.287  -0.028   3.268 -0.0479  0.1613  0.1132
  163SAPE   C3218211   6.277  -0.057   3.505 -0.0282 -0.3907 -0.0995
  163SAPE   H2X18212   6.295  -0.144   3.572 -1.3986  0.1568  1.0354
  163SAPE   H2Y18213   6.167  -0.041   3.511 -0.2000 -1.8011  1.2061
  163SAPE   C2318214   6.825  -0.102   3.566 -0.6401 -0.1214  0.2171
  163SAPE   H3R18215   6.842  -0.212   3.570 -3.6797 -0.7137 -0.3167
  163SAPE   H3S18216   6.720  -0.085   3.599 -0.3516 -0.8563  1.6120
  163SAPE   C2418217   6.903  -0.027   3.675  0.4034 -0.6055  0.9487
  163SAPE   H4R18218   6.855  -0.059   3.770 -0.5414 -2.2292 -0.0269
  163SAPE   H4S18219   6.887   0.083   3.674  0.6038 -0.5643 -0.7788
  163SAPE   C2518220   7.050  -0.047   3.671 -0.4262 -0.6527 -0.2146
  163SAPE   H5R18221   7.085  -0.011   3.573  1.0742 -1.2836  0.0577
  163SAPE   C2618222   7.130  -0.100   3.760 -0.2718  0.6433 -0.0026
  163SAPE   H6R18223   7.234  -0.105   3.727 -0.4830  0.6694 -0.6896
  163SAPE   C2718224   7.104  -0.156   3.898 -0.4924  0.4275  0.1338
  163SAPE   H7R18225   7.154  -0.256   3.900 -0.6657  0.3352 -0.0989
  163SAPE   H7S18226   6.998  -0.188   3.903  0.2149 -1.9092  4.0772
  163SAPE   C2818227   7.149  -0.074   4.015  0.6210  0.0689  0.1136
  163SAPE   H8R18228   7.238  -0.013   3.994  0.3956  0.0681 -0.9153
  163SAPE   C2918229   7.083  -0.044   4.129  0.5038  0.5234 -0.1958
  163SAPE   H9R18230   7.126   0.027   4.202  2.0015  0.7567 -1.2481
  163SAPE  C21018231   6.958  -0.106   4.169  0.5904  0.0512 -0.0134
  163SAPE  H10R18232   6.978  -0.195   4.232  0.8524  0.3228  0.2944
  163SAPE  H10S18233   6.905  -0.149   4.082 -1.0923  3.0090 -0.5632
  163SAPE  C21118234   6.867  -0.010   4.238 -0.3805 -0.1002  0.1113
  163SAPE  H11R18235   6.813   0.060   4.173  0.7945  0.3499 -0.4094
  163SAPE  C21218236   6.850  -0.008   4.370 -0.2660 -0.6266 -0.3011
  163SAPE  H12R18237   6.777   0.065   4.408 -0.0038  0.1964 -1.3164
  163SAPE  C21318238   6.922  -0.095   4.472  0.4174 -0.1305 -0.2747
  163SAPE  H13R18239   7.019  -0.126   4.429  0.5366 -0.9232  0.5258
  163SAPE  H13S18240   6.879  -0.198   4.479 -0.4785  0.0238 -2.5398
  163SAPE  C21418241   6.928  -0.037   4.613  0.4148  0.3793  0.1469
  163SAPE  H14R18242   6.828  -0.008   4.648 -1.5404 -0.3334 -4.1278
  163SAPE  C21518243   7.034  -0.027   4.699 -0.0139 -0.0382  0.1475
  163SAPE  H15R18244   7.031  -0.003   4.807 -0.6383 -1.9847  0.6062
  163SAPE  C21618245   7.172  -0.085   4.671 -0.0174  0.0457 -0.2417
  163SAPE  H16R18246   7.257  -0.013   4.667  2.5217 -2.7691 -0.9342
  163SAPE  H16S18247   7.171  -0.134   4.571 -0.5513  0.1377 -0.2838
  163SAPE  C21718248   7.212  -0.194   4.773  0.3428 -0.4961 -0.0761
  163SAPE  H17R18249   7.277  -0.268   4.721  2.2378  1.3744 -0.5341
  163SAPE  H17S18250   7.116  -0.249   4.784  0.8398 -1.6746 -1.3730
  163SAPE  C21818251   7.278  -0.138   4.903 -0.8273  0.4223 -0.8538
  163SAPE  H18R18252   7.226  -0.054   4.954  0.0579 -0.9111  2.5410
  163SAPE  H18S18253   7.376  -0.091   4.879 -0.0504 -1.3734 -1.3173
  163SAPE  C21918254   7.311  -0.259   4.997  0.0381 -0.5095 -0.5046
  163SAPE  H19R18255   7.220  -0.287   5.054  1.0459  1.9453  2.5584
  163SAPE  H19S18256   7.369  -0.217   5.082 -1.8505 -0.3016  0.7504
  163SAPE  C22018257   7.395  -0.377   4.943  0.8168  0.2645  0.4682
  163SAPE  H20R18258   7.339  -0.434   4.864  1.0440 -1.0760  1.2434
  163SAPE  H20S18259   7.395  -0.450   5.026 -1.4651  0.6933  0.9245
  163SAPE  H20T18260   7.493  -0.342   4.904  0.5976  1.1920  0.7349
  163SAPE   C3318261   6.352   0.064   3.564 -1.0895 -0.7154 -0.4148
  163SAPE   H3X18262   6.317   0.161   3.522  0.9073  0.9210  1.4824
  163SAPE   H3Y18263   6.460   0.052   3.542 -0.0465  3.3184  1.4485
  163SAPE   C3418264   6.343   0.064   3.718  0.2360 -0.2219 -0.1308
  163SAPE   H4X18265   6.396  -0.023   3.763  0.3940 -0.2644 -0.3971
  163SAPE   H4Y18266   6.234   0.061   3.739 -0.2264  2.2938 -1.7414
  163SAPE   C3518267   6.417   0.185   3.793  0.5885  0.9400 -0.5095
  163SAPE   H5X18268   6.354   0.276   3.781 -1.7271 -0.6042 -0.5443
  163SAPE   H5Y18269   6.518   0.196   3.748  0.1315 -2.2272 -2.6176
  163SAPE   C3618270   6.445   0.157   3.943 -0.4239  0.1727 -0.3257
  163SAPE   H6X18271   6.502   0.247   3.972  2.0369 -0.9860 -1.3062
  163SAPE   H6Y18272   6.504   0.063   3.949  0.7925  0.8399 -1.3986
  163SAPE   C3718273   6.321   0.132   4.035 -0.3310  0.9888 -0.1040
  163SAPE   H7X18274   6.269   0.047   3.987  0.6872  0.1699  0.2077
  163SAPE   H7Y18275   6.244   0.213   4.039  0.1838  1.5336 -0.8640
  163SAPE   C3818276   6.357   0.075   4.171 -0.4860  0.6847 -0.1870
  163SAPE   H8X18277   6.440   0.002   4.163 -1.0276  0.1103 -0.5700
  163SAPE   H8Y18278   6.272   0.017   4.213 -0.3640 -0.4632 -1.4684
  163SAPE   C3918279   6.369   0.189   4.274 -0.5274  0.3298 -0.7600
  163SAPE   H9X18280   6.271   0.206   4.324  0.4580 -3.7081  3.2537
  163SAPE   H9Y18281   6.410   0.282   4.230  1.6820 -0.6313 -0.9085
  163SAPE  C31018282   6.467   0.153   4.388  0.4190 -0.2656  0.0193
  163SAPE  H10X18283   6.566   0.137   4.341  0.7935  2.6823 -0.3830
  163SAPE  H10Y18284   6.424   0.068   4.446  0.9033  0.0558  0.8625
  163SAPE  C31118285   6.498   0.263   4.492  0.4417  0.6504  0.1821
  163SAPE  H11X18286   6.436   0.261   4.584  1.3813 -0.3688  0.8179
  163SAPE  H11Y18287   6.488   0.360   4.440  1.4716 -0.0056 -1.3146
  163SAPE  C31218288   6.644   0.261   4.539  0.0793  0.0417  0.1106
  163SAPE  H12X18289   6.721   0.257   4.459  0.3275  2.7139  0.1454
  163SAPE  H12Y18290   6.651   0.171   4.604  0.6019  1.0118  1.4469
  163SAPE  C31318291   6.689   0.384   4.626 -0.0219 -0.0169 -0.5667
  163SAPE  H13X18292   6.616   0.386   4.710  0.5481  2.7106 -0.0390
  163SAPE  H13Y18293   6.674   0.481   4.572 -1.3177 -0.2294 -0.6314
  163SAPE  C31418294   6.830   0.362   4.680  0.0050  0.3661 -0.0103
  163SAPE  H14X18295   6.910   0.389   4.608  0.8015 -0.8072  0.4068
  163SAPE  H14Y18296   6.852   0.256   4.707  1.4361  0.1785 -1.7167
  163SAPE  C31518297   6.864   0.443   4.811  0.1474  0.0226  0.0074
  163SAPE  H15X18298   6.971   0.441   4.842 -0.2539  1.0148  1.5916
  163SAPE  H15Y18299   6.816   0.384   4.892 -2.5583  0.9203 -0.8343
  163SAPE  C31618300   6.821   0.586   4.800 -0.0130 -0.1145  0.1496
  163SAPE  H16X18301   6.710   0.586   4.786  0.0214  0.3067 -0.1538
  163SAPE  H16Y18302   6.865   0.632   4.709  0.2614 -3.0412 -1.3127
  163SAPE  C31718303   6.860   0.661   4.928  0.0339 -0.0833 -0.5292
  163SAPE  H17X18304   6.843   0.589   5.011  2.2530  0.1853  0.2268
  163SAPE  H17Y18305   6.795   0.749   4.944  0.0821  0.3816 -2.6066
  163SAPE  C31818306   7.004   0.708   4.931  0.1054  0.2293  0.0444
  163SAPE  H18X18307   7.014   0.776   4.843 -0.2888 -0.9282 -0.9138
  163SAPE  H18Y18308   7.082   0.629   4.921  0.4233  0.5839 -0.3489
  163SAPE  H18Z18309   7.020   0.774   5.019  0.5023  0.4470 -0.1853
  164SAPE     N18310   3.970   1.054   2.626 -0.0759  0.5984 -0.2720
  164SAPE   HN118311   4.016   1.144   2.651 -1.3127  1.1558  0.0896
  164SAPE   HN218312   4.049   0.987   2.619 -0.4843  0.1643 -0.7479
  164SAPE   HN318313   3.923   1.052   2.533 -1.1539 -1.1592  0.2732
  164SAPE   C1218314   3.898   0.999   2.743  0.0704  0.4630 -0.1058
  164SAPE  H12A18315   3.899   0.888   2.736 -2.3578  0.3415  0.5395
  164SAPE  H12B18316   3.791   1.028   2.731 -0.4681  0.5475  3.5582
  164SAPE   C1118317   3.961   1.051   2.873  0.0055  0.3569 -0.3134
  164SAPE  H11A18318   4.064   1.013   2.893  0.3313  0.4363 -1.7463
  164SAPE  H11B18319   3.885   1.029   2.951 -1.8260  0.4597 -2.0031
  164SAPE     P18320   3.862   1.289   2.912  0.2832 -0.4495 -0.1583
  164SAPE   O1318321   3.921   1.420   2.940 -0.1101 -0.1821 -0.2921
  164SAPE   O1418322   3.762   1.280   2.808 -0.0291 -0.4119  0.0697
  164SAPE   O1218323   3.975   1.193   2.872  0.0594  0.1968  0.0248
  164SAPE   O1118324   3.801   1.234   3.046  0.1825  0.0669 -0.7035
  164SAPE    C118325   3.877   1.249   3.163  0.0712  0.2012 -0.0521
  164SAPE    HA18326   3.974   1.197   3.148  0.4516  0.0017  2.6042
  164SAPE    HB18327   3.887   1.357   3.187  0.5009  0.1080  0.1924
  164SAPE    C218328   3.800   1.187   3.272  0.2126  0.0146  0.2076
  164SAPE    HS18329   3.757   1.092   3.234  0.9652 -0.3269  0.1835
  164SAPE   O2118330   3.694   1.279   3.303 -0.5320 -0.4661 -0.2440
  164SAPE   C2118331   3.579   1.229   3.337 -0.2369 -0.0085  0.2330
  164SAPE   O2218332   3.544   1.113   3.314  0.2375 -0.8688  0.0586
  164SAPE   C2218333   3.500   1.344   3.413  0.0821 -0.6897 -0.7134
  164SAPE   H2R18334   3.572   1.419   3.450 -0.9180  0.6721 -1.4699
  164SAPE   H2S18335   3.449   1.392   3.327 -0.0909  0.1368 -0.1551
  164SAPE    C318336   3.897   1.167   3.398 -0.0613 -0.8075  0.8231
  164SAPE    HX18337   3.897   1.269   3.443 -0.0836 -0.5355  0.2249
  164SAPE    HY18338   3.996   1.128   3.366  0.0575  0.5671 -0.6496
  164SAPE   O3118339   3.847   1.082   3.498  0.0526  0.8876  0.5276
  164SAPE   C3118340   3.817   0.952   3.472 -0.0646 -0.1910 -0.1175
  164SAPE   O3218341   3.825   0.896   3.366  0.0553 -0.6456 -0.1733
  164SAPE   C3218342   3.764   0.892   3.602 -0.2125 -0.2233 -0.4952
  164SAPE   H2X18343   3.837   0.885   3.685 -0.0136 -0.5242 -0.6908
  164SAPE   H2Y18344   3.742   0.791   3.561 -2.9654  1.5274 -3.9397
  164SAPE   C2318345   3.414   1.291   3.532  0.2135  0.1092  0.5783
  164SAPE   H3R18346   3.477   1.256   3.616  0.1655 -4.1454 -0.9096
  164SAPE   H3S18347   3.346   1.210   3.497 -0.1594 -0.8410  3.2943
  164SAPE   C2418348   3.309   1.389   3.588  0.0799 -0.5766 -0.0760
  164SAPE   H4R18349   3.222   1.407   3.521 -2.2864 -0.1181  2.8809
  164SAPE   H4S18350   3.350   1.490   3.610 -1.1313 -0.6335  3.0657
  164SAPE   C2518351   3.249   1.344   3.721  0.1397 -0.4182 -0.3809
  164SAPE   H5R18352   3.160   1.280   3.714 -0.6247  0.4920  0.7454
  164SAPE   C2618353   3.276   1.391   3.848  0.4047  1.3861 -0.0753
  164SAPE   H6R18354   3.212   1.350   3.927  1.8462 -0.2048  0.3287
  164SAPE   C2718355   3.403   1.465   3.885  0.1236 -0.6598  0.1233
  164SAPE   H7R18356   3.374   1.550   3.950  0.3737  1.5570 -2.5165
  164SAPE   H7S18357   3.452   1.511   3.797  0.1538  2.1648  1.5227
  164SAPE   C2818358   3.507   1.385   3.954  0.2278  0.5607 -0.2922
  164SAPE   H8R18359   3.541   1.295   3.901 -2.6174 -1.4836  1.1282
  164SAPE   C2918360   3.559   1.410   4.073  0.3202 -0.1394  0.5021
  164SAPE   H9R18361   3.632   1.342   4.119 -1.4093 -2.5450 -0.0774
  164SAPE  C21018362   3.531   1.530   4.159 -0.2924  0.1771 -1.1971
  164SAPE  H10R18363   3.483   1.613   4.102  0.1125 -0.5055 -2.5503
  164SAPE  H10S18364   3.627   1.569   4.199 -1.4355  0.4987  1.4981
  164SAPE  C21118365   3.442   1.490   4.274  0.1797  0.2059 -0.3591
  164SAPE  H11R18366   3.359   1.428   4.236 -0.0626  0.4025 -0.1536
  164SAPE  C21218367   3.463   1.516   4.401 -0.1622 -0.0391  0.2810
  164SAPE  H12R18368   3.387   1.485   4.474  1.4863 -1.3882  1.5131
  164SAPE  C21318369   3.578   1.586   4.467 -0.5850  0.3049  0.0882
  164SAPE  H13R18370   3.641   1.636   4.390 -1.6016  0.6200 -0.5589
  164SAPE  H13S18371   3.638   1.506   4.515 -0.0812  1.5996  1.6749
  164SAPE  C21418372   3.543   1.685   4.569  0.0517  0.4865  0.5122
  164SAPE  H14R18373   3.563   1.787   4.532  0.4539  0.0509 -0.5011
  164SAPE  C21518374   3.501   1.669   4.693  0.7706 -0.7911 -0.8982
  164SAPE  H15R18375   3.477   1.755   4.758 -1.2068 -0.7905 -1.5827
  164SAPE  C21618376   3.468   1.535   4.756 -0.3522  0.8801  0.4906
  164SAPE  H16R18377   3.427   1.458   4.687  2.2402  0.1600 -0.3601
  164SAPE  H16S18378   3.395   1.547   4.839  0.8985  0.2082  1.7426
  164SAPE  C21718379   3.595   1.462   4.821 -0.2992 -0.2233 -0.0868
  164SAPE  H17R18380   3.627   1.534   4.898 -1.8260  0.9684 -0.5024
  164SAPE  H17S18381   3.667   1.452   4.736  0.2199  0.3455  0.2823
  164SAPE  C21818382   3.563   1.319   4.875  0.1804  0.2294  0.2721
  164SAPE  H18R18383   3.525   1.260   4.788  2.6051 -0.4180 -0.4329
  164SAPE  H18S18384   3.479   1.319   4.947 -0.0313 -3.3534  0.2064
  164SAPE  C21918385   3.686   1.252   4.937  0.5388  0.2022  0.8817
  164SAPE  H19R18386   3.733   1.331   5.000  0.1645  1.2398 -0.1205
  164SAPE  H19S18387   3.753   1.234   4.850  1.3712  4.0230  0.5580
  164SAPE  C22018388   3.662   1.128   5.026 -0.3282 -0.1219 -0.1190
  164SAPE  H20R18389   3.621   1.038   4.975 -2.3260  0.9360 -0.4882
  164SAPE  H20S18390   3.587   1.167   5.099  0.8455  2.0736 -0.0034
  164SAPE  H20T18391   3.753   1.107   5.087 -1.9967 -0.0099  2.6160
  164SAPE   C3318392   3.631   0.961   3.645 -0.3000  0.8086 -0.3395
  164SAPE   H3X18393   3.571   0.944   3.552 -0.3607 -1.0219  0.0008
  164SAPE   H3Y18394   3.643   1.071   3.655  0.1222  0.6913  0.4730
  164SAPE   C3418395   3.554   0.906   3.763  0.3649 -0.7057 -1.0144
  164SAPE   H4X18396   3.570   0.796   3.770 -0.1427 -0.7100  0.5137
  164SAPE   H4Y18397   3.446   0.929   3.751  0.4669 -0.9889 -2.7063
  164SAPE   C3518398   3.609   0.955   3.898 -0.1426  0.2064  0.0573
  164SAPE   H5X18399   3.628   1.064   3.894  0.1844  0.1818  0.8692
  164SAPE   H5Y18400   3.708   0.906   3.893  0.2843  1.1574 -1.1494
  164SAPE   C3618401   3.531   0.916   4.024  0.4161 -0.1697 -0.1028
  164SAPE   H6X18402   3.581   0.973   4.106  0.3839 -1.3487  0.7608
  164SAPE   H6Y18403   3.551   0.809   4.046  1.3056 -0.1428 -0.7362
  164SAPE   C3718404   3.376   0.940   4.015 -0.5570  0.2093  0.5215
  164SAPE   H7X18405   3.330   0.906   4.110  1.0471 -0.9243  0.9333
  164SAPE   H7Y18406   3.334   0.884   3.929  1.3739 -0.0123 -0.3411
  164SAPE   C3818407   3.334   1.090   4.005  0.4011 -0.1523 -0.2477
  164SAPE   H8X18408   3.287   1.113   3.907  0.6171 -2.7331 -1.0243
  164SAPE   H8Y18409   3.424   1.154   4.016  0.2901 -0.1529  0.7513
  164SAPE   C3918410   3.243   1.121   4.130  0.4456 -0.2041  0.4779
  164SAPE   H9X18411   3.170   1.038   4.135  0.2279  0.0407  1.6302
  164SAPE   H9Y18412   3.180   1.212   4.115 -1.7954 -1.5717  1.1897
  164SAPE  C31018413   3.321   1.127   4.262  0.0555 -0.6677  0.5041
  164SAPE  H10X18414   3.422   1.174   4.260 -0.2030 -0.1003 -1.7688
  164SAPE  H10Y18415   3.333   1.020   4.289  1.8502 -0.9126 -1.0123
  164SAPE  C31118416   3.239   1.191   4.377  0.0808  0.1258  0.2794
  164SAPE  H11X18417   3.130   1.174   4.363  0.4744 -1.4604 -1.2592
  164SAPE  H11Y18418   3.258   1.300   4.364  2.6744 -0.3423 -0.3495
  164SAPE  C31218419   3.296   1.147   4.512 -0.1153  0.5073  0.2221
  164SAPE  H12X18420   3.404   1.172   4.511 -0.1984  0.9062  0.7843
  164SAPE  H12Y18421   3.277   1.039   4.530 -2.1881  0.9844  1.2057
  164SAPE  C31318422   3.248   1.221   4.641 -0.3965  0.7974 -0.1789
  164SAPE  H13X18423   3.261   1.330   4.626 -0.2528  0.8162  0.0659
  164SAPE  H13Y18424   3.302   1.195   4.735  0.0485  1.1828 -0.3267
  164SAPE  C31418425   3.097   1.199   4.653 -0.2103  0.4348 -0.1569
  164SAPE  H14X18426   3.083   1.090   4.668 -0.1524  0.3619 -0.6345
  164SAPE  H14Y18427   3.052   1.221   4.555 -0.2828 -1.1119 -0.4979
  164SAPE  C31518428   3.046   1.280   4.773 -0.1325  0.5531 -0.4961
  164SAPE  H15X18429   3.052   1.389   4.752 -2.3517  0.4542 -1.8815
  164SAPE  H15Y18430   3.113   1.252   4.857 -1.4323  1.7742  1.0087
  164SAPE  C31618431   2.905   1.252   4.832 -0.1107  0.2809  0.1291
  164SAPE  H16X18432   2.901   1.289   4.936 -2.1136  2.1311 -0.5163
  164SAPE  H16Y18433   2.885   1.142   4.834  0.2770  0.2142  0.4398
  164SAPE  C31718434   2.789   1.321   4.756 -0.0033  0.4856  0.1478
  164SAPE  H17X18435   2.784   1.296   4.648 -1.8032  0.4009  0.2297
  164SAPE  H17Y18436   2.808   1.430   4.752 -1.9428  0.8259 -1.0698
  164SAPE  C31818437   2.653   1.296   4.812 -0.1603 -0.1377 -0.0232
  164SAPE  H18X18438   2.635   1.187   4.814 -1.0753  0.0057  0.0924
  164SAPE  H18Y18439   2.573   1.347   4.755  1.3052  2.4272  0.0339
  164SAPE  H18Z18440   2.649   1.332   4.917  1.3124  3.3492 -1.0071
  165SAPE     N18441   0.808   6.742   2.686  0.0761  0.5903  0.7410
  165SAPE   HN118442   0.886   6.727   2.753  0.2270 -2.5752  0.0584
  165SAPE   HN218443   0.795   6.653   2.633 -2.2022  1.2790  0.0107
  165SAPE   HN318444   0.847   6.808   2.616  0.5530 -0.1345  0.3059
  165SAPE   C1218445   0.683   6.792   2.758 -0.3087 -0.4913 -0.0864
  165SAPE  H12A18446   0.638   6.703   2.808  3.1681 -1.7758  1.1286
  165SAPE  H12B18447   0.610   6.836   2.688 -0.9802  0.5912  1.2474
  165SAPE   C1118448   0.709   6.899   2.873  0.0933 -0.2872 -0.5034
  165SAPE  H11A18449   0.617   6.899   2.935 -2.5047 -1.3403 -4.0592
  165SAPE  H11B18450   0.727   6.993   2.817  0.2081 -1.0225 -1.7394
  165SAPE     P18451   0.938   6.955   3.013 -0.1050 -0.4122 -0.1300
  165SAPE   O1318452   1.035   6.869   3.079 -0.2828  0.5118 -0.6692
  165SAPE   O1418453   0.999   7.052   2.916 -0.2046 -0.2565  0.5742
  165SAPE   O1218454   0.826   6.857   2.948  0.5161  0.4497 -0.8219
  165SAPE   O1118455   0.855   7.042   3.114 -0.2667  0.1007 -0.1292
  165SAPE    C118456   0.784   6.978   3.227 -0.4425 -0.3099  1.0187
  165SAPE    HA18457   0.681   7.021   3.227  0.0066  0.7971  0.8368
  165SAPE    HB18458   0.784   6.867   3.217 -0.1088 -0.2290  0.0964
  165SAPE    C218459   0.862   7.003   3.364  0.3729 -0.2544  0.0500
  165SAPE    HS18460   0.804   6.944   3.438  0.3317  1.1218  1.1684
  165SAPE   O2118461   0.862   7.140   3.415  0.1439  0.4564 -0.0209
  165SAPE   C2118462   0.741   7.184   3.463  0.0249 -0.2502 -0.6969
  165SAPE   O2218463   0.635   7.125   3.468 -0.4026 -0.2735  0.4871
  165SAPE   C2218464   0.776   7.328   3.509 -0.2373  0.5543 -0.1681
  165SAPE   H2R18465   0.813   7.311   3.613 -0.6220 -0.9863 -0.2711
  165SAPE   H2S18466   0.859   7.371   3.450 -1.0284 -0.5208 -2.1333
  165SAPE    C318467   1.006   6.943   3.362  0.1989  0.3851 -0.0514
  165SAPE    HX18468   1.069   7.003   3.292 -1.1116  0.4647 -1.2059
  165SAPE    HY18469   1.011   6.843   3.315  2.0466  0.7322 -0.6983
  165SAPE   O3118470   1.056   6.934   3.493 -0.2242 -0.0850  0.4078
  165SAPE   C3118471   1.124   7.037   3.540 -0.1356  0.2028 -0.8380
  165SAPE   O3218472   1.172   7.124   3.471 -0.2868 -0.2548 -0.1354
  165SAPE   C3218473   1.128   7.030   3.691  0.0053 -0.6187 -0.9734
  165SAPE   H2X18474   1.198   7.103   3.736 -0.2076  0.6400 -2.6147
  165SAPE   H2Y18475   1.169   6.930   3.718 -1.9596 -1.2975 -0.2961
  165SAPE   C2318476   0.657   7.424   3.497  0.0119 -0.0012 -0.2411
  165SAPE   H3R18477   0.580   7.387   3.568  0.2868  0.4806  0.3178
  165SAPE   H3S18478   0.607   7.433   3.398  0.7047  2.8438 -0.4093
  165SAPE   C2418479   0.689   7.560   3.554 -0.3399 -0.2353 -0.2013
  165SAPE   H4R18480   0.747   7.544   3.647 -1.8799  0.9727  1.0337
  165SAPE   H4S18481   0.604   7.620   3.593  2.5759  3.5674  0.8912
  165SAPE   C2518482   0.763   7.648   3.455 -0.1475  0.0383  0.4795
  165SAPE   H5R18483   0.761   7.613   3.351  0.0278 -0.4281  0.6330
  165SAPE   C2618484   0.836   7.756   3.475  0.1351 -0.5263  0.5554
  165SAPE   H6R18485   0.894   7.797   3.391 -1.0710 -0.3197 -0.2087
  165SAPE   C2718486   0.865   7.815   3.608 -0.3425  1.0107 -0.6139
  165SAPE   H7R18487   0.934   7.737   3.648 -2.1556 -1.4617 -2.0461
  165SAPE   H7S18488   0.784   7.803   3.684  1.2353 -1.0853  0.8577
  165SAPE   C2818489   0.936   7.951   3.607  0.4817 -0.7970 -0.1777
  165SAPE   H8R18490   0.997   7.967   3.517  0.8338 -0.0236  0.1804
  165SAPE   C2918491   0.924   8.051   3.701 -0.3029  0.2082 -0.0224
  165SAPE   H9R18492   0.976   8.144   3.675 -1.2469  1.4388  2.2609
  165SAPE  C21018493   0.834   8.047   3.820  0.9168  0.5501 -0.2696
  165SAPE  H10R18494   0.835   7.941   3.856  1.9046  0.1893 -1.2999
  165SAPE  H10S18495   0.732   8.067   3.779  1.3732  3.5231 -0.1439
  165SAPE  C21118496   0.893   8.143   3.920  0.1926  0.7284  0.5239
  165SAPE  H11R18497   1.003   8.140   3.927  0.1091 -0.9962  2.5047
  165SAPE  C21218498   0.828   8.230   4.002  0.1052  0.1341 -0.2055
  165SAPE  H12R18499   0.891   8.288   4.071 -0.6338 -0.1783  0.7594
  165SAPE  C21318500   0.677   8.244   4.021  0.1872 -0.2459  0.4591
  165SAPE  H13R18501   0.615   8.171   3.966  1.4495  0.3563 -1.9140
  165SAPE  H13S18502   0.650   8.346   3.984  2.3656 -0.3073 -1.5766
  165SAPE  C21418503   0.644   8.223   4.169 -0.0535 -0.0476  0.0366
  165SAPE  H14R18504   0.637   8.317   4.227 -0.8123 -0.4675  0.6428
  165SAPE  C21518505   0.625   8.101   4.230 -0.1810 -0.4813  0.0931
  165SAPE  H15R18506   0.598   8.105   4.336  0.4996 -2.6777  0.3795
  165SAPE  C21618507   0.650   7.972   4.166 -0.3529  0.0842  0.4541
  165SAPE  H16R18508   0.685   7.974   4.060 -0.3456 -0.6792  0.4355
  165SAPE  H16S18509   0.552   7.921   4.157 -0.1951  0.0741 -2.2095
  165SAPE  C21718510   0.734   7.878   4.259 -0.2423 -0.0536 -0.1491
  165SAPE  H17R18511   0.831   7.923   4.290  0.5532 -0.5140 -1.8788
  165SAPE  H17S18512   0.760   7.784   4.207  1.2250  0.8463 -1.0901
  165SAPE  C21818513   0.650   7.848   4.390 -1.1712  0.2189 -0.0325
  165SAPE  H18R18514   0.548   7.819   4.356 -2.1754  0.8694  2.2396
  165SAPE  H18S18515   0.639   7.938   4.455  1.3687 -0.3767  1.3594
  165SAPE  C21918516   0.710   7.731   4.470  0.5966  0.0992  0.3972
  165SAPE  H19R18517   0.820   7.746   4.478  0.5922  0.4636 -0.1811
  165SAPE  H19S18518   0.701   7.628   4.428  2.1857  0.3964 -0.7743
  165SAPE  C22018519   0.648   7.729   4.612  0.2501 -0.7183 -0.2395
  165SAPE  H20R18520   0.538   7.748   4.611  0.5732  1.9013  2.4804
  165SAPE  H20S18521   0.702   7.808   4.668 -0.4509 -1.8029  2.0711
  165SAPE  H20T18522   0.669   7.635   4.667 -2.0681 -1.4104 -0.4057
  165SAPE   C3318523   0.990   7.060   3.761 -0.0792  0.1012  0.1978
  165SAPE   H3X18524   0.909   7.004   3.711 -0.8188  0.4324  1.0070
  165SAPE   H3Y18525   0.952   7.162   3.740 -2.3634 -0.5335  0.9602
  165SAPE   C3418526   1.002   7.041   3.910 -0.0670  0.0714  0.4049
  165SAPE   H4X18527   1.061   7.130   3.941 -0.6204  0.6430 -0.1539
  165SAPE   H4Y18528   1.057   6.947   3.931 -0.5354 -0.2264  0.3144
  165SAPE   C3518529   0.879   7.048   3.991  0.0001  0.1485  0.0450
  165SAPE   H5X18530   0.811   6.965   3.965 -1.3810  0.4802  2.2659
  165SAPE   H5Y18531   0.829   7.143   3.960  0.8340  1.4516  2.4180
  165SAPE   C3618532   0.911   7.052   4.133  0.0804 -0.1147 -0.6632
  165SAPE   H6X18533   0.937   7.156   4.163  0.1503 -0.6693  1.3284
  165SAPE   H6Y18534   0.992   6.986   4.170 -1.5416 -0.2980  3.0420
  165SAPE   C3718535   0.785   7.009   4.225 -0.2607  0.3506 -0.5693
  165SAPE   H7X18536   0.766   6.902   4.200  2.9690  0.3253 -3.7860
  165SAPE   H7Y18537   0.696   7.074   4.205 -0.5767  0.4710  1.0844
  165SAPE   C3818538   0.819   7.022   4.384 -0.4618 -0.5111  0.5455
  165SAPE   H8X18539   0.856   7.119   4.424 -0.9756 -0.0858  0.0058
  165SAPE   H8Y18540   0.900   6.948   4.400 -0.5300 -0.6369  0.3147
  165SAPE   C3918541   0.690   6.990   4.460 -0.0138 -1.3096 -0.2795
  165SAPE   H9X18542   0.603   7.053   4.432 -0.9576 -0.8222  3.3104
  165SAPE   H9Y18543   0.701   7.022   4.566 -0.2610 -0.3628 -0.5224
  165SAPE  C31018544   0.642   6.842   4.460  0.4220  0.4434 -0.6271
  165SAPE  H10X18545   0.627   6.822   4.352 -0.5262  0.5815 -0.5285
  165SAPE  H10Y18546   0.542   6.831   4.507 -0.8693 -0.3915 -3.3188
  165SAPE  C31118547   0.739   6.740   4.519 -0.2802 -0.4145  0.4446
  165SAPE  H11X18548   0.846   6.761   4.495  0.3888 -1.7439  2.0329
  165SAPE  H11Y18549   0.702   6.647   4.471 -1.5096  0.9161 -1.3028
  165SAPE  C31218550   0.727   6.716   4.672  0.5343 -0.1189  0.2450
  165SAPE  H12X18551   0.782   6.621   4.692  2.5269  0.9010 -0.1722
  165SAPE  H12Y18552   0.621   6.690   4.696  0.4296 -1.3220 -1.3558
  165SAPE  C31318553   0.773   6.826   4.764  0.2951  0.4391  0.5223
  165SAPE  H13X18554   0.780   6.785   4.866  1.1777  2.2878  1.2457
  165SAPE  H13Y18555   0.696   6.907   4.766  0.5996  0.7630  3.7623
  165SAPE  C31418556   0.915   6.889   4.730  0.0118  0.8605  0.4557
  165SAPE  H14X18557   0.911   6.940   4.632  0.2317 -0.2722 -0.1619
  165SAPE  H14Y18558   0.985   6.803   4.724 -0.4582  0.5359 -0.5168
  165SAPE  C31518559   0.971   6.983   4.839 -0.4765 -0.1604  0.0928
  165SAPE  H15X18560   1.074   7.016   4.815 -0.3715  0.1496  0.9376
  165SAPE  H15Y18561   0.973   6.921   4.931 -0.3343 -1.3456 -0.6767
  165SAPE  C31618562   0.891   7.112   4.858  0.1313  0.7326  0.2633
  165SAPE  H16X18563   0.925   7.147   4.958  1.7085 -1.8737  0.7277
  165SAPE  H16Y18564   0.782   7.095   4.870 -0.2054  2.6298  0.2425
  165SAPE  C31718565   0.917   7.236   4.767 -0.5592 -0.0633 -0.2449
  165SAPE  H17X18566   0.916   7.203   4.661  1.5715 -2.0422  0.2936
  165SAPE  H17Y18567   1.018   7.272   4.796 -1.8086  3.6442  0.0927
  165SAPE  C31818568   0.818   7.349   4.797  0.1172 -0.7662 -0.4004
  165SAPE  H18X18569   0.855   7.443   4.750  0.8840  0.3309  2.1881
  165SAPE  H18Y18570   0.810   7.372   4.906 -0.4238  1.1558 -0.8056
  165SAPE  H18Z18571   0.718   7.329   4.754  0.1686  0.9575 -1.4316
  166SAPE     N18572   1.640   2.677   2.765  0.0887 -0.1894  0.0692
  166SAPE   HN118573   1.650   2.631   2.672  1.9524 -1.7373  0.9795
  166SAPE   HN218574   1.540   2.661   2.791  0.0405 -1.3070 -0.7071
  166SAPE   HN318575   1.656   2.779   2.756 -1.8517  0.2188  0.6922
  166SAPE   C1218576   1.722   2.615   2.872  0.1817  0.1771  0.1766
  166SAPE  H12A18577   1.698   2.661   2.971  1.1473 -0.1884  0.5905
  166SAPE  H12B18578   1.828   2.644   2.853  0.4215 -0.7650  0.0542
  166SAPE   C1118579   1.704   2.461   2.876 -0.3221  0.1880  0.5569
  166SAPE  H11A18580   1.699   2.405   2.780  0.0873 -3.8581  2.6644
  166SAPE  H11B18581   1.610   2.435   2.928 -0.7078 -1.7422 -0.9872
  166SAPE     P18582   1.963   2.391   2.892 -0.4998 -0.0761  0.0941
  166SAPE   O1318583   1.965   2.424   2.749 -0.2312 -0.5377  0.3216
  166SAPE   O1418584   2.062   2.455   2.979 -0.1676  0.0512 -0.0825
  166SAPE   O1218585   1.814   2.414   2.951  0.5218 -0.1924  0.7101
  166SAPE   O1118586   1.970   2.230   2.908 -0.4000 -0.2041  0.0148
  166SAPE    C118587   1.890   2.135   2.982 -0.6065 -0.2858 -0.1815
  166SAPE    HA18588   1.788   2.132   2.938 -0.9648  3.2141  0.1332
  166SAPE    HB18589   1.945   2.038   2.990 -0.8027 -0.2976  1.4883
  166SAPE    C218590   1.872   2.166   3.134 -0.0027  0.2790  0.1646
  166SAPE    HS18591   1.797   2.249   3.141  0.0728  0.4512 -0.9716
  166SAPE   O2118592   2.003   2.205   3.181  0.5811  0.4487 -0.0188
  166SAPE   C2118593   2.002   2.314   3.261 -0.7556 -0.4361  0.4068
  166SAPE   O2218594   1.899   2.368   3.302 -0.6094 -0.4126 -1.0403
  166SAPE   C2218595   2.142   2.361   3.284 -0.2364 -0.5944 -0.9695
  166SAPE   H2R18596   2.192   2.364   3.184  1.8796 -1.4202 -0.0011
  166SAPE   H2S18597   2.138   2.462   3.330 -0.6594 -1.0175 -0.0485
  166SAPE    C318598   1.835   2.039   3.213  0.0046 -0.3776  0.8229
  166SAPE    HX18599   1.915   1.964   3.194 -0.7139 -1.5475  2.1820
  166SAPE    HY18600   1.739   2.001   3.173 -0.5897 -1.4639  3.0762
  166SAPE   O3118601   1.812   2.054   3.349  0.1883  0.1823 -0.1580
  166SAPE   C3118602   1.901   2.018   3.433 -0.3388 -0.2242 -0.2872
  166SAPE   O3218603   2.023   1.993   3.407  0.4707 -0.3540 -0.4664
  166SAPE   C3218604   1.834   1.989   3.574 -0.3025  0.3718 -0.3144
  166SAPE   H2X18605   1.729   1.955   3.567 -0.5899  1.3439 -0.8337
  166SAPE   H2Y18606   1.836   2.079   3.639 -0.6325 -1.0218  1.7018
  166SAPE   C2318607   2.221   2.274   3.392  0.0216  0.0370  0.2994
  166SAPE   H3R18608   2.328   2.275   3.362 -0.4320  0.3617 -1.4248
  166SAPE   H3S18609   2.184   2.171   3.373 -3.3553  1.5781 -2.6133
  166SAPE   C2418610   2.206   2.319   3.537  0.3945 -0.0390 -0.1082
  166SAPE   H4R18611   2.256   2.415   3.557 -2.0381  1.2071  0.3983
  166SAPE   H4S18612   2.270   2.244   3.587  0.0949 -0.2158  0.0161
  166SAPE   C2518613   2.066   2.299   3.599 -0.6533 -0.4079 -0.4152
  166SAPE   H5R18614   2.041   2.193   3.611  3.4381 -1.7962 -2.2181
  166SAPE   C2618615   1.977   2.392   3.640 -0.3125 -0.2904  1.2323
  166SAPE   H6R18616   1.878   2.361   3.676  0.6101 -0.5308  3.7615
  166SAPE   C2718617   2.005   2.541   3.622 -0.0118 -0.4982 -0.2033
  166SAPE   H7R18618   1.915   2.606   3.615  1.0458  1.1210  0.4493
  166SAPE   H7S18619   2.072   2.556   3.534 -1.0800  0.2661 -0.9134
  166SAPE   C2818620   2.091   2.592   3.734  0.0315 -0.0699  0.0111
  166SAPE   H8R18621   2.196   2.559   3.730  0.1380  0.4212 -2.1797
  166SAPE   C2918622   2.042   2.659   3.845  0.0272  0.8312 -0.2498
  166SAPE   H9R18623   2.113   2.677   3.927 -1.8407 -1.0789  1.9539
  166SAPE  C21018624   1.907   2.709   3.865  0.2431 -0.7980  0.4826
  166SAPE  H10R18625   1.897   2.741   3.971  0.0473  0.1794  0.1753
  166SAPE  H10S18626   1.849   2.615   3.849  0.4792 -0.9017  0.2241
  166SAPE  C21118627   1.869   2.830   3.783 -0.1915 -0.0157 -0.5372
  166SAPE  H11R18628   1.936   2.845   3.697 -0.2694  0.3746 -0.5328
  166SAPE  C21218629   1.785   2.933   3.813 -0.4735 -0.0945  0.5494
  166SAPE  H12R18630   1.778   3.006   3.730 -1.8739  0.4276  1.0912
  166SAPE  C21318631   1.689   2.951   3.931 -0.5178  0.5926  0.1935
  166SAPE  H13R18632   1.758   2.964   4.017 -0.7680  2.5942  0.1376
  166SAPE  H13S18633   1.621   2.865   3.944  0.3067 -0.0365  0.4073
  166SAPE  C21418634   1.619   3.083   3.933  0.1201 -0.3545  0.0890
  166SAPE  H14R18635   1.636   3.153   3.850  1.9170  1.1611  1.6435
  166SAPE  C21518636   1.528   3.108   4.027  0.2362 -1.1199 -0.4764
  166SAPE  H15R18637   1.484   3.208   4.010 -0.3477 -1.5413 -1.5822
  166SAPE  C21618638   1.481   3.019   4.134 -0.2563 -0.0105  0.3793
  166SAPE  H16R18639   1.555   2.937   4.150 -1.2502 -0.8675  0.7126
  166SAPE  H16S18640   1.385   2.974   4.102  0.0360 -0.8546  0.6591
  166SAPE  C21718641   1.454   3.087   4.268 -0.3695  0.0413  0.3815
  166SAPE  H17R18642   1.390   3.177   4.261 -1.1968 -0.2924  2.7033
  166SAPE  H17S18643   1.547   3.119   4.320  0.3687 -1.5280  0.0958
  166SAPE  C21818644   1.377   2.995   4.362  0.8372 -0.1514 -0.2974
  166SAPE  H18R18645   1.449   2.949   4.434 -1.2249 -1.2376  1.1809
  166SAPE  H18S18646   1.330   2.914   4.302  0.9066  2.2604 -3.8451
  166SAPE  C21918647   1.280   3.068   4.458  0.3578 -1.0224  0.2606
  166SAPE  H19R18648   1.220   3.002   4.525  2.1197 -0.2959  2.6879
  166SAPE  H19S18649   1.200   3.127   4.408  0.0110 -1.3062  0.4675
  166SAPE  C22018650   1.355   3.182   4.539  0.0811  0.9252  0.4736
  166SAPE  H20R18651   1.296   3.213   4.628  0.0272 -1.8582  1.5015
  166SAPE  H20S18652   1.377   3.274   4.481 -0.7531  0.5677 -0.4478
  166SAPE  H20T18653   1.455   3.145   4.572 -0.7057 -0.3398  1.5398
  166SAPE   C3318654   1.922   1.885   3.651  0.0918 -0.1615  0.2843
  166SAPE   H3X18655   2.018   1.935   3.678 -1.2001  0.8567  3.5123
  166SAPE   H3Y18656   1.954   1.804   3.582 -0.1568 -0.9018  1.0252
  166SAPE   C3418657   1.849   1.818   3.769  0.3486 -0.1777 -0.2895
  166SAPE   H4X18658   1.901   1.732   3.816 -1.4441 -1.2987 -0.2873
  166SAPE   H4Y18659   1.752   1.775   3.738  1.4337 -1.8108 -1.5730
  166SAPE   C3518660   1.818   1.916   3.883 -0.2294 -0.4259 -0.3173
  166SAPE   H5X18661   1.803   2.022   3.851 -1.6674  0.6288  3.3192
  166SAPE   H5Y18662   1.908   1.913   3.948  0.1963 -2.8306 -0.9393
  166SAPE   C3618663   1.690   1.875   3.957  0.5164 -0.0733  0.2470
  166SAPE   H6X18664   1.683   1.765   3.947  2.0371 -0.2580  0.9915
  166SAPE   H6Y18665   1.601   1.906   3.898  0.3458 -1.4217 -0.2373
  166SAPE   C3718666   1.691   1.918   4.102 -0.6326  0.4947  0.1251
  166SAPE   H7X18667   1.693   2.029   4.115 -0.0516  0.2768  2.2208
  166SAPE   H7Y18668   1.788   1.879   4.139 -0.3215 -0.0303 -1.1795
  166SAPE   C3818669   1.578   1.855   4.182  0.2083  0.6028  0.2188
  166SAPE   H8X18670   1.588   1.744   4.181  1.1131  0.5521  3.3432
  166SAPE   H8Y18671   1.480   1.878   4.134  1.0451 -0.8235 -2.3207
  166SAPE   C3918672   1.567   1.912   4.325 -1.3863  0.1481  0.6226
  166SAPE   H9X18673   1.574   2.023   4.332  3.9390  0.0767  0.2394
  166SAPE   H9Y18674   1.656   1.883   4.385 -1.5263  0.0254  0.7736
  166SAPE  C31018675   1.445   1.859   4.401  0.0991  0.3425  0.3488
  166SAPE  H10X18676   1.452   1.749   4.395  1.0576  0.4236 -0.0810
  166SAPE  H10Y18677   1.357   1.887   4.339  1.0014  0.3666 -0.9635
  166SAPE  C31118678   1.434   1.917   4.547  0.8180  0.9574  0.0331
  166SAPE  H11X18679   1.346   1.985   4.543 -1.4045 -1.7579 -0.1954
  166SAPE  H11Y18680   1.525   1.978   4.566  1.2933  0.1911  0.2197
  166SAPE  C31218681   1.411   1.808   4.655  1.0447 -0.0584  1.0353
  166SAPE  H12X18682   1.504   1.747   4.652  1.1854  0.1427  1.2274
  166SAPE  H12Y18683   1.318   1.749   4.643  0.5233  0.8354  0.5884
  166SAPE  C31318684   1.395   1.848   4.800 -0.2268 -0.1381 -0.0202
  166SAPE  H13X18685   1.311   1.919   4.811  0.8004  1.1118 -0.0755
  166SAPE  H13Y18686   1.481   1.909   4.835  0.0646 -0.8442  0.5278
  166SAPE  C31418687   1.364   1.737   4.906  0.1623 -0.9632  0.5901
  166SAPE  H14X18688   1.313   1.657   4.847 -2.0985  2.4446 -2.5155
  166SAPE  H14Y18689   1.304   1.780   4.988 -0.4901 -1.2435  0.2684
  166SAPE  C31518690   1.484   1.687   4.981 -1.2587 -0.4031 -0.0471
  166SAPE  H15X18691   1.450   1.590   5.022 -0.5561 -0.9272 -0.6618
  166SAPE  H15Y18692   1.510   1.760   5.060 -1.8502  0.8640 -0.9745
  166SAPE  C31618693   1.602   1.654   4.886 -0.0757  0.3898  0.7754
  166SAPE  H16X18694   1.626   1.745   4.827  0.8102 -1.1514 -1.3705
  166SAPE  H16Y18695   1.571   1.570   4.820  0.8284 -0.9572  2.0047
  166SAPE  C31718696   1.728   1.604   4.959  0.1934 -0.3048  0.0253
  166SAPE  H17X18697   1.706   1.534   5.042  0.0469  0.2908  0.4928
  166SAPE  H17Y18698   1.785   1.691   4.998 -0.0568  0.6281 -1.5854
  166SAPE  C31818699   1.831   1.534   4.868  0.1311  0.0393 -0.3012
  166SAPE  H18X18700   1.873   1.598   4.787 -3.5161  0.9881 -1.6610
  166SAPE  H18Y18701   1.791   1.436   4.832 -0.2105 -0.4707  1.4047
  166SAPE  H18Z18702   1.919   1.494   4.922 -0.3368 -2.1317 -1.0473
  167SAPE     N18703   2.687   6.915   2.234  0.2982  0.4069 -0.1733
  167SAPE   HN118704   2.627   6.848   2.182  0.1252  1.1903 -1.0359
  167SAPE   HN218705   2.735   6.861   2.308 -2.3924 -3.0161 -0.6917
  167SAPE   HN318706   2.635   6.995   2.274  1.2185  1.3093 -0.7185
  167SAPE   C1218707   2.794   6.958   2.145 -0.1110  0.1238 -0.1592
  167SAPE  H12A18708   2.736   7.007   2.064 -1.8190  1.2778  1.6690
  167SAPE  H12B18709   2.859   6.877   2.105 -0.4816  0.2208 -0.9873
  167SAPE   C1118710   2.890   7.076   2.196  0.7302 -0.1220 -0.0977
  167SAPE  H11A18711   2.835   7.171   2.212  0.0660 -0.6860  1.1622
  167SAPE  H11B18712   2.957   7.098   2.110  0.5102 -0.2047 -0.2921
  167SAPE     P18713   3.080   7.108   2.366  0.0116  0.1422 -0.3890
  167SAPE   O1318714   3.178   7.125   2.264 -0.0908  0.4174  0.0218
  167SAPE   O1418715   3.026   7.230   2.422 -0.1074  0.0816  0.4442
  167SAPE   O1218716   2.956   7.026   2.308 -0.1310  0.8985 -0.4008
  167SAPE   O1118717   3.139   7.013   2.479 -0.1543 -0.3206 -0.7108
  167SAPE    C118718   3.047   6.934   2.561 -0.3450 -0.5877  0.3663
  167SAPE    HA18719   2.943   6.925   2.525  0.0928 -0.9233 -0.8668
  167SAPE    HB18720   3.079   6.827   2.557 -0.4028 -0.6311  0.9261
  167SAPE    C218721   3.042   6.984   2.708 -0.5835  0.6248  0.8819
  167SAPE    HS18722   2.983   7.078   2.697 -1.3696  0.0929  0.3812
  167SAPE   O2118723   3.177   7.007   2.755  0.2769  0.8907  0.5573
  167SAPE   C2118724   3.208   7.114   2.821 -0.1604  1.1289  0.5317
  167SAPE   O2218725   3.134   7.199   2.852  0.5345 -0.2051  0.3186
  167SAPE   C2218726   3.357   7.128   2.840 -0.3574 -0.7737 -0.6514
  167SAPE   H2R18727   3.406   7.032   2.866  2.1507  0.0173 -2.1104
  167SAPE   H2S18728   3.398   7.158   2.741  1.5200 -0.8610  0.0589
  167SAPE    C318729   2.961   6.899   2.802  0.5353  0.2001 -0.5726
  167SAPE    HX18730   3.009   6.800   2.787 -0.0954  0.0741 -1.8956
  167SAPE    HY18731   2.856   6.906   2.766  0.0560  0.7877  0.8576
  167SAPE   O3118732   2.976   6.942   2.940  0.0524 -0.1665 -0.1613
  167SAPE   C3118733   2.915   7.062   2.978  0.4485  0.4380  0.0178
  167SAPE   O3218734   2.840   7.125   2.915  0.2303  0.1192  0.1124
  167SAPE   C3218735   2.975   7.101   3.122 -0.0970 -0.4376  1.4207
  167SAPE   H2X18736   3.060   7.170   3.102  0.6568 -1.2346  1.7998
  167SAPE   H2Y18737   3.010   7.013   3.179  1.5518  0.5097  1.9424
  167SAPE   C2318738   3.397   7.240   2.947  0.5057 -0.0050  0.3748
  167SAPE   H3R18739   3.388   7.345   2.911  1.3753 -0.4795 -1.3360
  167SAPE   H3S18740   3.508   7.234   2.951  0.8442  3.6479  0.1042
  167SAPE   C2418741   3.334   7.223   3.085 -1.0291  0.5899 -0.3832
  167SAPE   H4R18742   3.316   7.115   3.105  1.6282  0.0264 -0.6772
  167SAPE   H4S18743   3.226   7.247   3.077 -1.7665 -2.4236 -0.6949
  167SAPE   C2518744   3.422   7.290   3.193  0.3462 -0.1565 -0.3000
  167SAPE   H5R18745   3.486   7.373   3.159  0.1240  1.3602  2.6883
  167SAPE   C2618746   3.411   7.272   3.323 -0.3319  0.1401  0.0240
  167SAPE   H6R18747   3.479   7.337   3.379  0.3312  0.5051 -1.1656
  167SAPE   C2718748   3.316   7.174   3.388  0.7749  0.1225  0.1916
  167SAPE   H7R18749   3.267   7.101   3.319 -1.6176 -0.1647  2.0626
  167SAPE   H7S18750   3.234   7.238   3.428 -0.9583 -2.1666  0.5326
  167SAPE   C2818751   3.379   7.092   3.499 -0.2747 -0.0018 -0.0013
  167SAPE   H8R18752   3.480   7.052   3.480 -0.1072 -1.2226  2.8508
  167SAPE   C2918753   3.320   7.046   3.615 -0.0133 -0.4108 -0.1155
  167SAPE   H9R18754   3.372   6.965   3.668  0.1911 -0.1546  0.0735
  167SAPE  C21018755   3.177   7.082   3.646  0.6575 -0.6407 -0.3570
  167SAPE  H10R18756   3.114   7.050   3.560  0.1076  0.4706 -0.3773
  167SAPE  H10S18757   3.182   7.192   3.645 -0.8404 -0.5247  0.5094
  167SAPE  C21118758   3.138   7.031   3.786  1.1319  0.0746  0.5727
  167SAPE  H11R18759   3.122   6.924   3.768 -1.6371  0.9188 -3.3711
  167SAPE  C21218760   3.102   7.110   3.891  0.3187 -0.3827  0.2232
  167SAPE  H12R18761   3.065   7.057   3.981 -0.1476 -1.7308 -0.7376
  167SAPE  C21318762   3.103   7.261   3.906 -0.2885 -0.6208 -0.2689
  167SAPE  H13R18763   3.015   7.293   3.966  0.9938 -0.3717  1.6027
  167SAPE  H13S18764   3.104   7.305   3.804 -0.0806  0.4264  0.1756
  167SAPE  C21418765   3.235   7.311   3.970 -0.6295 -0.1473 -0.8631
  167SAPE  H14R18766   3.313   7.234   3.971 -0.9065 -0.4474 -1.4240
  167SAPE  C21518767   3.266   7.434   4.012  0.6521  0.5512  0.0133
  167SAPE  H15R18768   3.357   7.446   4.072  1.7877 -0.1335 -1.5147
  167SAPE  C21618769   3.176   7.558   4.008  0.7418  0.4179  0.0572
  167SAPE  H16R18770   3.134   7.574   3.907  2.8896 -2.0840 -1.3662
  167SAPE  H16S18771   3.233   7.650   4.035  1.5307 -0.3933  1.2789
  167SAPE  C21718772   3.070   7.546   4.121  0.1747 -0.3670  0.7491
  167SAPE  H17R18773   2.987   7.473   4.114  1.4698 -1.8992  0.7580
  167SAPE  H17S18774   3.029   7.648   4.133 -1.2226 -0.6402 -1.3121
  167SAPE  C21818775   3.136   7.519   4.261  0.3211 -0.5208 -0.5927
  167SAPE  H18R18776   3.242   7.553   4.256 -0.5590  2.3735 -2.1619
  167SAPE  H18S18777   3.138   7.409   4.280 -0.8571 -0.8288 -2.0680
  167SAPE  C21918778   3.052   7.593   4.364 -0.3641  0.2013 -0.3017
  167SAPE  H19R18779   3.046   7.698   4.329 -1.3726  0.5220  0.7873
  167SAPE  H19S18780   3.106   7.601   4.461 -0.5290 -0.5682 -0.1401
  167SAPE  C22018781   2.914   7.533   4.382  0.0624 -0.1252 -0.9377
  167SAPE  H20R18782   2.844   7.606   4.427  0.3644 -0.8872  0.8308
  167SAPE  H20S18783   2.906   7.452   4.458 -2.5946  0.5320 -0.4146
  167SAPE  H20T18784   2.866   7.498   4.288 -1.0213 -0.1074 -0.4035
  167SAPE   C3318785   2.873   7.198   3.186 -0.3596  0.0662  0.1021
  167SAPE   H3X18786   2.774   7.147   3.185  0.8862 -2.4750 -0.3540
  167SAPE   H3Y18787   2.868   7.293   3.129  3.5709  0.1067 -0.4128
  167SAPE   C3418788   2.897   7.214   3.336 -0.6579 -0.2879 -0.1717
  167SAPE   H4X18789   2.990   7.273   3.349 -1.7189  1.8776 -1.6472
  167SAPE   H4Y18790   2.907   7.119   3.392  1.0948 -0.0132  0.0422
  167SAPE   C3518791   2.783   7.292   3.414 -0.7806 -0.3427  0.3896
  167SAPE   H5X18792   2.694   7.225   3.407 -0.9281 -0.2934  1.6023
  167SAPE   H5Y18793   2.765   7.391   3.367 -0.1392  0.1820  1.2252
  167SAPE   C3618794   2.810   7.313   3.567  0.3595  0.4004  1.5345
  167SAPE   H6X18795   2.912   7.357   3.574  1.1192 -0.8142 -0.7242
  167SAPE   H6Y18796   2.822   7.214   3.616  1.4410 -0.7269 -0.8420
  167SAPE   C3718797   2.704   7.401   3.629 -0.4943 -0.3169  0.0847
  167SAPE   H7X18798   2.609   7.343   3.624  0.6372 -2.4781  1.8848
  167SAPE   H7Y18799   2.692   7.495   3.572  0.0827 -0.1201  0.2831
  167SAPE   C3818800   2.750   7.442   3.773  0.5143 -0.3873  0.1203
  167SAPE   H8X18801   2.846   7.497   3.769 -0.4405  1.3637  0.4299
  167SAPE   H8Y18802   2.761   7.348   3.832 -1.1606 -0.8865 -0.3088
  167SAPE   C3918803   2.642   7.538   3.836  0.2571 -0.7465 -0.1991
  167SAPE   H9X18804   2.627   7.615   3.756  4.4547 -0.8493 -1.3297
  167SAPE   H9Y18805   2.677   7.585   3.931 -0.8320  0.3098 -0.2920
  167SAPE  C31018806   2.504   7.470   3.858  0.5530 -0.2720  0.0540
  167SAPE  H10X18807   2.518   7.363   3.885 -0.4541 -0.7763 -1.2911
  167SAPE  H10Y18808   2.463   7.467   3.755  1.5779  2.0845 -0.4777
  167SAPE  C31118809   2.399   7.546   3.945  0.4190  0.4440 -0.6822
  167SAPE  H11X18810   2.296   7.507   3.931  0.7353 -0.4247 -0.6086
  167SAPE  H11Y18811   2.395   7.646   3.896  0.7454  0.4759 -0.6421
  167SAPE  C31218812   2.440   7.559   4.098 -0.0378 -0.0786 -0.0911
  167SAPE  H12X18813   2.340   7.576   4.144 -0.1863  1.4256 -0.8897
  167SAPE  H12Y18814   2.501   7.650   4.119 -2.6645  1.1205  3.3801
  167SAPE  C31318815   2.498   7.443   4.163 -0.3602 -0.6242 -0.5914
  167SAPE  H13X18816   2.607   7.435   4.142  0.1746  2.2471  0.6218
  167SAPE  H13Y18817   2.452   7.352   4.118 -0.9791 -1.0789  0.8986
  167SAPE  C31418818   2.461   7.443   4.315 -0.3326  0.4818  0.3487
  167SAPE  H14X18819   2.494   7.351   4.367 -1.9138  0.5259  1.5133
  167SAPE  H14Y18820   2.350   7.447   4.324 -0.3098  2.6828  0.2212
  167SAPE  C31518821   2.516   7.568   4.390  0.0356  0.2259 -0.0889
  167SAPE  H15X18822   2.503   7.664   4.337  0.1272  0.9335  1.1405
  167SAPE  H15Y18823   2.623   7.546   4.413 -0.2546 -1.7721 -0.4343
  167SAPE  C31618824   2.443   7.588   4.523  1.3130 -0.4565  0.4717
  167SAPE  H16X18825   2.406   7.493   4.568  1.2661 -0.6901 -0.0531
  167SAPE  H16Y18826   2.357   7.657   4.507  3.0161  1.4375 -0.9530
  167SAPE  C31718827   2.519   7.663   4.631  0.0184 -1.5694 -0.6662
  167SAPE  H17X18828   2.555   7.757   4.584  1.7518 -1.3751  0.9287
  167SAPE  H17Y18829   2.611   7.603   4.648  0.0225 -0.8592  2.1583
  167SAPE  C31818830   2.440   7.690   4.767 -0.2388  0.4018 -0.1846
  167SAPE  H18X18831   2.506   7.734   4.844  0.7144 -0.3397 -0.5597
  167SAPE  H18Y18832   2.402   7.592   4.802 -1.0441 -0.3933 -2.9754
  167SAPE  H18Z18833   2.355   7.759   4.750  0.4511  1.9456  2.1666
  168SAPE     N18834   5.870   0.337   2.214 -0.5436 -0.0509 -0.3775
  168SAPE   HN118835   5.953   0.332   2.151 -0.0670  1.7841  0.0633
  168SAPE   HN218836   5.857   0.235   2.231  2.0728 -0.5999 -1.2424
  168SAPE   HN318837   5.787   0.385   2.173 -1.6790 -0.8562  0.9005
  168SAPE   C1218838   5.911   0.402   2.333  0.5291 -0.9020 -0.8406
  168SAPE  H12A18839   5.905   0.511   2.311  1.2238 -0.4491  1.0543
  168SAPE  H12B18840   6.017   0.396   2.365  0.1226  2.5813  1.8264
  168SAPE   C1118841   5.803   0.370   2.440 -0.0976 -0.0029  0.5077
  168SAPE  H11A18842   5.707   0.389   2.388  0.4763  2.3333  0.1798
  168SAPE  H11B18843   5.810   0.437   2.529  1.4520 -1.6981  1.7388
  168SAPE     P18844   5.927   0.202   2.599 -0.1520 -0.0958 -0.0377
  168SAPE   O1318845   5.893   0.071   2.648 -0.4612  0.2595  0.6768
  168SAPE   O1418846   6.061   0.225   2.542  0.0763  0.0399 -0.5489
  168SAPE   O1218847   5.822   0.239   2.489 -0.4494  0.0766  0.0849
  168SAPE   O1118848   5.911   0.316   2.711  0.4793  0.6297 -0.8406
  168SAPE    C118849   5.787   0.310   2.787 -0.1241  0.5463  0.2589
  168SAPE    HA18850   5.704   0.323   2.714 -0.4888  3.5901  1.0545
  168SAPE    HB18851   5.768   0.213   2.839 -2.5144  0.4933 -0.6239
  168SAPE    C218852   5.769   0.419   2.897  0.0436  0.0012  0.3596
  168SAPE    HS18853   5.672   0.401   2.948  1.4245 -2.2766  2.4448
  168SAPE   O2118854   5.781   0.549   2.830  0.2522 -0.1143 -0.5012
  168SAPE   C2118855   5.670   0.578   2.761 -0.1228 -0.3184 -0.8845
  168SAPE   O2218856   5.564   0.517   2.769 -0.0875 -0.0369 -0.9001
  168SAPE   C2218857   5.697   0.701   2.675 -0.1830  0.0361  0.3710
  168SAPE   H2R18858   5.761   0.675   2.588 -1.8148 -0.6124 -0.6886
  168SAPE   H2S18859   5.593   0.725   2.643 -1.8488 -1.0958  4.2886
  168SAPE    C318860   5.880   0.406   3.005 -0.7190 -0.0685  0.8883
  168SAPE    HX18861   5.890   0.496   3.071  0.5247  0.3672  0.1542
  168SAPE    HY18862   5.979   0.392   2.957 -0.9499 -1.2027  0.7292
  168SAPE   O3118863   5.861   0.289   3.086  0.3288 -0.1467  0.1974
  168SAPE   C3118864   5.972   0.229   3.130  0.0434  0.7030 -0.5031
  168SAPE   O3218865   6.083   0.273   3.132 -0.7124 -0.4336  0.2581
  168SAPE   C3218866   5.941   0.083   3.173  0.3593  0.2508 -0.7769
  168SAPE   H2X18867   6.042   0.037   3.175  1.4701  2.4479 -2.1029
  168SAPE   H2Y18868   5.887   0.040   3.086  0.6517  1.4397 -1.5827
  168SAPE   C2318869   5.759   0.820   2.751 -0.1131  0.3799 -0.4337
  168SAPE   H3R18870   5.792   0.902   2.684  0.7185 -0.4216 -1.0291
  168SAPE   H3S18871   5.847   0.791   2.813  0.4460  0.4069 -1.2040
  168SAPE   C2418872   5.661   0.876   2.857 -0.0552  0.5236 -0.1280
  168SAPE   H4R18873   5.722   0.920   2.938  2.2763 -1.3781 -0.7292
  168SAPE   H4S18874   5.618   0.789   2.911  1.6536  0.2579  0.8688
  168SAPE   C2518875   5.564   0.977   2.796  0.5940 -0.1495 -0.7158
  168SAPE   H5R18876   5.473   0.929   2.757  0.7060 -1.1720  0.2186
  168SAPE   C2618877   5.577   1.110   2.789 -0.5834  0.5438  1.1203
  168SAPE   H6R18878   5.495   1.170   2.747 -0.9925 -0.4908  0.3861
  168SAPE   C2718879   5.692   1.192   2.840 -0.2549  0.3913 -0.1774
  168SAPE   H7R18880   5.784   1.131   2.830 -0.4358  0.3980 -2.4045
  168SAPE   H7S18881   5.671   1.213   2.947  1.2077  1.2026 -0.0327
  168SAPE   C2818882   5.726   1.319   2.762  0.4907 -0.1089  0.0176
  168SAPE   H8R18883   5.668   1.322   2.669  0.2933  1.9328  0.1555
  168SAPE   C2918884   5.810   1.419   2.798  0.6569 -0.0055 -0.4832
  168SAPE   H9R18885   5.820   1.502   2.726 -2.9424 -0.1686 -1.3635
  168SAPE  C21018886   5.892   1.415   2.928  0.1831 -0.5135 -0.5914
  168SAPE  H10R18887   5.994   1.454   2.911  0.8911 -1.6443  0.8033
  168SAPE  H10S18888   5.910   1.306   2.938 -0.6041 -0.8378 -2.2943
  168SAPE  C21118889   5.819   1.466   3.053  0.2513  0.1710 -0.3084
  168SAPE  H11R18890   5.713   1.441   3.064  0.2441 -0.0040 -0.7786
  168SAPE  C21218891   5.876   1.538   3.154 -0.2024  0.4245  0.8184
  168SAPE  H12R18892   5.813   1.567   3.240 -0.3212  1.8481  0.2879
  168SAPE  C21318893   6.023   1.571   3.155 -0.7974 -0.0608  0.7358
  168SAPE  H13R18894   6.050   1.610   3.054  1.5862  0.1793  1.4021
  168SAPE  H13S18895   6.085   1.479   3.161 -1.9682 -0.7727  2.4530
  168SAPE  C21418896   6.059   1.682   3.252  0.4674 -0.5066 -0.3455
  168SAPE  H14R18897   6.050   1.775   3.195 -1.1549 -1.8677 -2.4693
  168SAPE  C21518898   6.078   1.676   3.384 -0.4121  0.6382  0.5505
  168SAPE  H15R18899   6.098   1.770   3.438  0.4482  1.9984 -1.9962
  168SAPE  C21618900   6.082   1.547   3.465  0.1183 -0.1734 -0.5137
  168SAPE  H16R18901   6.188   1.525   3.492 -0.2901  0.3488  1.7050
  168SAPE  H16S18902   6.052   1.454   3.413  4.0814 -1.7321 -0.3384
  168SAPE  C21718903   5.986   1.542   3.586 -0.4216  0.3927 -0.1088
  168SAPE  H17R18904   5.971   1.437   3.621  1.4456  0.4828  1.1034
  168SAPE  H17S18905   5.891   1.597   3.569  0.3272  1.5684 -0.6554
  168SAPE  C21818906   6.049   1.605   3.713 -0.2034  0.3340 -0.2500
  168SAPE  H18R18907   5.973   1.659   3.774  1.8380  2.2120  0.7472
  168SAPE  H18S18908   6.125   1.677   3.677 -0.2497  0.4658 -0.0820
  168SAPE  C21918909   6.138   1.511   3.798 -0.3860  0.0657  0.5575
  168SAPE  H19R18910   6.228   1.489   3.737  0.4843  1.1880  1.3846
  168SAPE  H19S18911   6.084   1.417   3.822 -3.3566  0.8331 -2.3513
  168SAPE  C22018912   6.202   1.577   3.923 -0.1048  0.1018 -0.3951
  168SAPE  H20R18913   6.120   1.598   3.995 -2.0187 -1.5529 -1.9497
  168SAPE  H20S18914   6.246   1.671   3.883  0.9809 -0.9861 -1.8613
  168SAPE  H20T18915   6.288   1.531   3.975 -0.9976 -0.7491  0.3700
  168SAPE   C3318916   5.863   0.062   3.307  0.1547  0.6017  0.0283
  168SAPE   H3X18917   5.865  -0.047   3.325 -0.9881  0.6905  0.7608
  168SAPE   H3Y18918   5.761   0.104   3.296  0.3106  1.1735  0.6583
  168SAPE   C3418919   5.935   0.134   3.417  0.2213  0.0592 -0.6538
  168SAPE   H4X18920   5.925   0.245   3.413  1.0127  0.1911  0.5342
  168SAPE   H4Y18921   6.039   0.095   3.413  0.8795  1.4334  1.2957
  168SAPE   C3518922   5.875   0.092   3.554 -0.2227 -0.5978 -0.5191
  168SAPE   H5X18923   5.884  -0.019   3.558  0.7539 -0.6195 -2.2058
  168SAPE   H5Y18924   5.765   0.104   3.551 -0.1771  2.2890  2.8769
  168SAPE   C3618925   5.937   0.168   3.658  0.3753  0.1328  0.6015
  168SAPE   H6X18926   5.947   0.278   3.642  2.6991  0.3093  2.6903
  168SAPE   H6Y18927   6.043   0.136   3.668  1.0296  2.1586  0.5669
  168SAPE   C3718928   5.869   0.160   3.797  0.1075 -0.3414  0.2006
  168SAPE   H7X18929   5.829   0.059   3.819 -1.4847  0.4701  1.3032
  168SAPE   H7Y18930   5.777   0.223   3.804  1.3004  1.4306  0.4220
  168SAPE   C3818931   5.957   0.190   3.921 -0.2449 -0.2208  0.5134
  168SAPE   H8X18932   5.988   0.296   3.922  2.6677 -0.9947  0.7508
  168SAPE   H8Y18933   6.033   0.110   3.905 -1.6177 -1.0557 -2.6321
  168SAPE   C3918934   5.880   0.163   4.050  0.0695 -0.5879  0.2808
  168SAPE   H9X18935   5.822   0.069   4.043 -2.6337  0.9105  1.0567
  168SAPE   H9Y18936   5.811   0.250   4.048  1.2883  0.4026 -1.8270
  168SAPE  C31018937   5.981   0.160   4.158  0.2145  0.2587 -0.5793
  168SAPE  H10X18938   6.052   0.244   4.141  0.9016 -0.5933 -2.1051
  168SAPE  H10Y18939   6.034   0.064   4.174 -2.7845 -1.1952  1.5101
  168SAPE  C31118940   5.907   0.191   4.293  0.0842 -0.4358  0.0508
  168SAPE  H11X18941   5.831   0.111   4.305 -2.1324  1.4297 -0.8941
  168SAPE  H11Y18942   5.862   0.292   4.293  1.4667  0.2852  3.1059
  168SAPE  C31218943   6.007   0.194   4.405  0.1354 -0.1780  0.0132
  168SAPE  H12X18944   6.063   0.290   4.403  2.8343 -1.4744  3.4105
  168SAPE  H12Y18945   6.082   0.113   4.398  0.4105 -0.2452  2.7769
  168SAPE  C31318946   5.943   0.176   4.538 -0.2188 -0.3705 -0.6136
  168SAPE  H13X18947   5.931   0.068   4.563  1.9728 -0.3380  0.8847
  168SAPE  H13Y18948   5.846   0.228   4.522  0.2158 -0.4531 -4.2291
  168SAPE  C31418949   6.034   0.227   4.657 -0.0306 -0.3431 -0.2293
  168SAPE  H14X18950   6.032   0.338   4.646 -3.1927 -0.3053 -0.1238
  168SAPE  H14Y18951   6.141   0.200   4.642  0.0524 -0.0347 -0.1962
  168SAPE  C31518952   5.967   0.198   4.792 -0.1019 -0.6786  0.8787
  168SAPE  H15X18953   5.997   0.092   4.800  1.9298 -0.3633 -1.3167
  168SAPE  H15Y18954   5.858   0.215   4.785 -0.0055 -0.5964 -1.4684
  168SAPE  C31618955   6.018   0.277   4.912 -0.4028 -0.1033  0.3348
  168SAPE  H16X18956   6.014   0.386   4.891  0.4478 -0.2041 -0.4357
  168SAPE  H16Y18957   6.125   0.251   4.928  0.4761  1.7239 -1.9107
  168SAPE  C31718958   5.922   0.235   5.025 -0.2759  0.1638 -0.8365
  168SAPE  H17X18959   5.926   0.125   5.040  0.5121  0.1952 -0.7402
  168SAPE  H17Y18960   5.823   0.280   5.005 -0.5006  0.6757  1.1620
  168SAPE  C31818961   5.964   0.290   5.159 -0.6012  0.5715  0.3706
  168SAPE  H18X18962   6.015   0.212   5.219 -0.4662  0.5006  0.1654
  168SAPE  H18Y18963   5.878   0.336   5.211  0.1174  1.9170  0.4247
  168SAPE  H18Z18964   6.041   0.369   5.147  2.4256 -2.0267  1.3871
  169SAPE     N18965   4.063   5.352   2.286 -0.1713 -0.7794  0.5165
  169SAPE   HN118966   4.102   5.349   2.190  0.7841  1.9783  0.7064
  169SAPE   HN218967   4.086   5.443   2.331  0.9650 -0.0542 -1.4046
  169SAPE   HN318968   4.122   5.284   2.338 -2.1309 -1.5822  1.8125
  169SAPE   C1218969   3.915   5.344   2.312 -0.9229  0.8488 -0.2540
  169SAPE  H12A18970   3.886   5.239   2.293 -0.8836  1.1065 -1.8757
  169SAPE  H12B18971   3.869   5.416   2.242 -0.2657  1.8253  0.2946
  169SAPE   C1118972   3.889   5.384   2.457 -0.3325  0.0626  0.5669
  169SAPE  H11A18973   3.781   5.382   2.483 -0.0804  2.0155  1.8943
  169SAPE  H11B18974   3.911   5.492   2.467  0.7967  0.0958 -1.6443
  169SAPE     P18975   3.912   5.181   2.625 -0.1035  0.2068  0.2076
  169SAPE   O1318976   3.854   5.091   2.527  0.0089  0.2992 -0.3585
  169SAPE   O1418977   4.020   5.125   2.717 -1.1613 -0.9133  0.4161
  169SAPE   O1218978   3.969   5.299   2.545  0.0230 -0.3386 -0.1425
  169SAPE   O1118979   3.798   5.252   2.711  0.6449  0.8770 -0.2388
  169SAPE    C118980   3.812   5.386   2.754  0.2160 -0.5156 -1.4043
  169SAPE    HA18981   3.917   5.412   2.779  0.5567 -2.2992 -0.8853
  169SAPE    HB18982   3.773   5.462   2.682 -1.1700  1.5000  1.2909
  169SAPE    C218983   3.744   5.410   2.898 -0.5137  0.1062 -0.0346
  169SAPE    HS18984   3.789   5.499   2.946 -0.6891  1.2669 -1.9420
  169SAPE   O2118985   3.748   5.284   2.977 -0.2640 -0.1730  0.2978
  169SAPE   C2118986   3.874   5.262   3.028  0.2545  0.2283  0.0429
  169SAPE   O2218987   3.972   5.330   3.007  0.2317 -0.1820 -0.5527
  169SAPE   C2218988   3.878   5.143   3.112  0.2714  0.5121 -0.2221
  169SAPE   H2R18989   3.854   5.050   3.055 -0.5757 -1.5148  3.1630
  169SAPE   H2S18990   3.981   5.144   3.154  0.0926 -0.6180  0.2910
  169SAPE    C318991   3.600   5.447   2.874 -0.4434  0.4196 -0.8469
  169SAPE    HX18992   3.547   5.372   2.811 -0.1976  0.5594 -1.2202
  169SAPE    HY18993   3.599   5.548   2.827  2.4919  1.5623  1.2280
  169SAPE   O3118994   3.532   5.460   3.003 -0.0103 -0.5676 -0.5767
  169SAPE   C3118995   3.450   5.364   3.036  0.1294 -0.0989  0.4574
  169SAPE   O3218996   3.425   5.268   2.965  0.2252 -0.1062  0.2368
  169SAPE   C3218997   3.388   5.390   3.165  0.5938 -0.2679  0.4857
  169SAPE   H2X18998   3.282   5.423   3.155 -0.1579 -2.1302  1.7457
  169SAPE   H2Y18999   3.450   5.466   3.217  2.0203 -0.3590 -0.9874
  169SAPE   C2319000   3.783   5.148   3.237 -0.8683  0.4461 -0.0796
  169SAPE   H3R19001   3.784   5.040   3.263  0.0946  0.3576 -0.4588
  169SAPE   H3S19002   3.680   5.174   3.204 -1.7003 -3.3391 -0.9148
  169SAPE   C2419003   3.839   5.234   3.359  0.5814 -0.8180 -0.7455
  169SAPE   H4R19004   3.887   5.327   3.320 -1.0169  0.0032 -0.8378
  169SAPE   H4S19005   3.924   5.179   3.404  2.0589  0.7620 -1.4809
  169SAPE   C2519006   3.729   5.272   3.458  0.3940 -0.1077 -0.6305
  169SAPE   H5R19007   3.635   5.298   3.406 -0.7133 -0.2975  1.1985
  169SAPE   C2619008   3.727   5.266   3.590 -0.0930 -0.0074  0.0010
  169SAPE   H6R19009   3.635   5.294   3.643  0.2613  1.6232 -0.1920
  169SAPE   C2719010   3.843   5.218   3.672 -0.0596  0.5036 -0.9197
  169SAPE   H7R19011   3.885   5.301   3.732  2.9867 -0.9270 -0.9044
  169SAPE   H7S19012   3.915   5.155   3.615  0.3903 -1.4831  1.6601
  169SAPE   C2819013   3.785   5.131   3.778 -0.1672  0.8316  0.4741
  169SAPE   H8R19014   3.729   5.051   3.728  1.0516  0.6900 -0.7211
  169SAPE   C2919015   3.811   5.118   3.908 -0.7912 -0.7189 -1.2110
  169SAPE   H9R19016   3.748   5.050   3.968  0.9474 -0.8573  0.5977
  169SAPE  C21019017   3.902   5.207   3.994  0.3152  0.5562  0.2158
  169SAPE  H10R19018   3.953   5.288   3.937  0.9951  0.6674  0.9641
  169SAPE  H10S19019   3.989   5.145   4.026  0.6187  0.8429 -0.0411
  169SAPE  C21119020   3.843   5.263   4.118 -0.0823  0.2561  0.5738
  169SAPE  H11R19021   3.771   5.344   4.096  0.6030  0.2961 -1.7524
  169SAPE  C21219022   3.888   5.221   4.240 -0.3617 -0.0585  0.5501
  169SAPE  H12R19023   3.836   5.260   4.329  0.4929 -0.7958  1.3947
  169SAPE  C21319024   3.986   5.108   4.290 -0.1912  0.0295  0.2465
  169SAPE  H13R19025   3.977   5.008   4.241 -0.7458  0.7146 -1.0976
  169SAPE  H13S19026   3.971   5.075   4.395 -1.5647 -0.0304  0.0469
  169SAPE  C21419027   4.133   5.139   4.264 -0.1562  0.2448  0.0250
  169SAPE  H14R19028   4.164   5.123   4.159 -1.2813  2.7225 -0.7612
  169SAPE  C21519029   4.217   5.178   4.358 -0.0435  0.6576  0.0081
  169SAPE  H15R19030   4.324   5.189   4.335  0.0877  0.8480  0.6697
  169SAPE  C21619031   4.190   5.188   4.504  1.2527 -0.6549 -0.5241
  169SAPE  H16R19032   4.087   5.219   4.531  1.2581 -0.4780 -0.7064
  169SAPE  H16S19033   4.255   5.267   4.549 -0.8459 -0.0637  1.6507
  169SAPE  C21719034   4.234   5.056   4.572 -0.2870  0.1915  0.0522
  169SAPE  H17R19035   4.190   4.963   4.531 -0.7553 -0.3486  1.7180
  169SAPE  H17S19036   4.197   5.066   4.676  2.6284 -0.1462  1.2075
  169SAPE  C21819037   4.378   5.039   4.572  0.1947  0.3189 -0.3638
  169SAPE  H18R19038   4.412   5.006   4.672 -0.4090  1.8098  0.3582
  169SAPE  H18S19039   4.439   5.132   4.568 -0.0239  0.5511  1.2777
  169SAPE  C21919040   4.411   4.940   4.460 -0.4496 -0.2044  1.0045
  169SAPE  H19R19041   4.389   4.976   4.357  0.0631 -2.1959  0.1501
  169SAPE  H19S19042   4.348   4.849   4.465  1.4539 -1.8362 -1.6972
  169SAPE  C22019043   4.559   4.906   4.454  0.0767 -0.1261  0.2511
  169SAPE  H20R19044   4.595   4.849   4.365  0.1411 -0.2244  0.3395
  169SAPE  H20S19045   4.586   4.841   4.539  0.7167 -1.2809 -0.8108
  169SAPE  H20T19046   4.623   4.997   4.461 -1.2556  0.8528  0.0478
  169SAPE   C3319047   3.376   5.261   3.246  0.3438  0.2216 -0.4631
  169SAPE   H3X19048   3.467   5.205   3.275  0.2081  0.6375  0.8072
  169SAPE   H3Y19049   3.290   5.196   3.219  0.7590 -1.7369  2.5025
  169SAPE   C3419050   3.323   5.298   3.388 -0.4366  0.4793 -0.2788
  169SAPE   H4X19051   3.229   5.354   3.370 -1.5257 -0.8493  1.0272
  169SAPE   H4Y19052   3.393   5.370   3.435  2.0846  0.6666 -3.8746
  169SAPE   C3519053   3.304   5.187   3.483  0.6561  0.6685  0.1044
  169SAPE   H5X19054   3.399   5.153   3.530 -0.5267 -2.4178  0.4965
  169SAPE   H5Y19055   3.255   5.098   3.438 -0.4316  2.4431 -2.4804
  169SAPE   C3619056   3.216   5.224   3.598 -0.3875  0.0798  0.0728
  169SAPE   H6X19057   3.112   5.209   3.561 -0.5296  1.4078 -0.1088
  169SAPE   H6Y19058   3.230   5.327   3.637 -0.9476 -0.6953  2.4832
  169SAPE   C3719059   3.231   5.128   3.720  0.5806  0.3341 -0.3423
  169SAPE   H7X19060   3.241   5.028   3.674  0.1863  0.8695 -1.6523
  169SAPE   H7Y19061   3.144   5.125   3.788  0.1007 -1.4976 -0.9839
  169SAPE   C3819062   3.353   5.157   3.812  0.4515  0.2916 -0.2911
  169SAPE   H8X19063   3.441   5.134   3.748  0.1606 -1.8628 -0.0029
  169SAPE   H8Y19064   3.351   5.086   3.897  0.3464 -1.7873 -1.9299
  169SAPE   C3919065   3.376   5.294   3.875  0.3414  0.1149 -0.7564
  169SAPE   H9X19066   3.275   5.305   3.920  0.2295 -0.0743 -0.9635
  169SAPE   H9Y19067   3.395   5.368   3.795  2.1966  0.4163 -0.0977
  169SAPE  C31019068   3.484   5.299   3.986  0.1454 -0.1095  0.7700
  169SAPE  H10X19069   3.583   5.305   3.937  1.0731 -1.6195  2.3456
  169SAPE  H10Y19070   3.484   5.201   4.037  0.0930 -0.6046 -0.1709
  169SAPE  C31119071   3.489   5.411   4.089  0.0547 -0.1080  0.6057
  169SAPE  H11X19072   3.541   5.501   4.051 -1.9244 -0.0826 -2.3882
  169SAPE  H11Y19073   3.552   5.378   4.174  1.9927  0.9632 -0.3449
  169SAPE  C31219074   3.352   5.441   4.151 -0.4840 -0.4531  0.1135
  169SAPE  H12X19075   3.324   5.358   4.219 -1.4235  1.1908  1.8154
  169SAPE  H12Y19076   3.275   5.460   4.072  0.7129 -1.0089 -1.2263
  169SAPE  C31319077   3.355   5.566   4.241  0.5770  0.1885 -1.3191
  169SAPE  H13X19078   3.250   5.581   4.275  1.3804  0.1960  1.3331
  169SAPE  H13Y19079   3.392   5.657   4.188 -1.3942  1.8918  0.0489
  169SAPE  C31419080   3.439   5.542   4.367  0.5259 -0.0302 -0.0326
  169SAPE  H14X19081   3.451   5.641   4.415  0.3295  0.0248 -0.0966
  169SAPE  H14Y19082   3.543   5.508   4.348  1.3596  2.2165  0.1492
  169SAPE  C31519083   3.379   5.446   4.467 -0.2821  0.8160 -0.3525
  169SAPE  H15X19084   3.399   5.340   4.437  2.8887  1.0198  0.5790
  169SAPE  H15Y19085   3.272   5.473   4.469  0.0453  2.2144 -0.8582
  169SAPE  C31619086   3.439   5.445   4.608 -0.2415  0.2794 -0.1100
  169SAPE  H16X19087   3.440   5.550   4.642 -0.4624  0.0162  0.7277
  169SAPE  H16Y19088   3.546   5.413   4.605 -0.7268 -2.2024  3.5954
  169SAPE  C31719089   3.367   5.359   4.708  0.6401  0.1596 -0.0871
  169SAPE  H17X19090   3.351   5.261   4.658 -4.6212  0.5046  0.4233
  169SAPE  H17Y19091   3.262   5.387   4.732  1.2812  0.5879  2.5627
  169SAPE  C31819092   3.436   5.339   4.839  0.3375  0.3355 -0.3298
  169SAPE  H18X19093   3.420   5.425   4.907  1.1203  0.9153 -0.8723
  169SAPE  H18Y19094   3.545   5.323   4.826  0.4751 -2.6023  2.8691
  169SAPE  H18Z19095   3.402   5.253   4.902 -1.7356  0.8302 -0.6894
  170SAPE     N19096   4.612   6.424   2.674 -0.9678  0.2111 -0.1858
  170SAPE   HN119097   4.560   6.362   2.609  0.7949 -1.1813 -0.3302
  170SAPE   HN219098   4.653   6.510   2.630 -0.8277  0.7456  0.9430
  170SAPE   HN319099   4.694   6.379   2.719 -1.7706  1.2172  2.4281
  170SAPE   C1219100   4.526   6.468   2.790 -0.0253 -0.1737  0.3247
  170SAPE  H12A19101   4.466   6.377   2.813  0.3640 -0.3904  0.4823
  170SAPE  H12B19102   4.459   6.550   2.756 -0.0081 -1.0018 -1.8795
  170SAPE   C1119103   4.608   6.513   2.923  0.3568 -0.0857  0.2981
  170SAPE  H11A19104   4.654   6.422   2.967  0.4961  1.1350  2.9111
  170SAPE  H11B19105   4.533   6.544   3.000 -0.7220  0.5965 -0.9863
  170SAPE     P19106   4.672   6.771   2.929 -0.1553 -0.2265  0.4439
  170SAPE   O1319107   4.787   6.843   2.864  0.1025 -0.4133  0.5421
  170SAPE   O1419108   4.534   6.805   2.897 -0.4082 -0.0780  0.1802
  170SAPE   O1219109   4.691   6.622   2.893 -0.0261  0.3919 -0.6716
  170SAPE   O1119110   4.703   6.783   3.082 -0.1070  0.2740  0.0527
  170SAPE    C119111   4.829   6.725   3.130 -0.0719  1.1373 -0.0703
  170SAPE    HA19112   4.841   6.623   3.088 -0.9159  1.1140 -0.2755
  170SAPE    HB19113   4.914   6.783   3.089 -0.2031  0.7003 -0.9686
  170SAPE    C219114   4.840   6.719   3.282  0.5719 -0.1383 -0.0507
  170SAPE    HS19115   4.931   6.659   3.307  2.2010  1.2239 -2.3109
  170SAPE   O2119116   4.726   6.656   3.335 -0.2514  0.5225 -0.5006
  170SAPE   C2119117   4.720   6.520   3.340 -0.3913  0.3938  0.5187
  170SAPE   O2219118   4.804   6.440   3.311  0.5961  0.0655 -0.0635
  170SAPE   C2219119   4.581   6.471   3.383 -0.1892 -0.9868 -0.2882
  170SAPE   H2R19120   4.519   6.526   3.309 -1.7849 -2.6190 -0.2412
  170SAPE   H2S19121   4.582   6.361   3.366  2.3367 -1.1819  0.7463
  170SAPE    C319122   4.850   6.863   3.333  0.2607 -0.1496 -0.4974
  170SAPE    HX19123   4.772   6.931   3.292 -2.3288  0.1114  4.1846
  170SAPE    HY19124   4.947   6.896   3.291  0.2711  0.8940  0.3138
  170SAPE   O3119125   4.866   6.881   3.479  0.3569  0.3426 -0.0353
  170SAPE   C3119126   4.762   6.866   3.549  0.1287 -0.2748 -0.1151
  170SAPE   O3219127   4.644   6.844   3.513  0.3142  0.5384  0.4642
  170SAPE   C3219128   4.810   6.894   3.693 -0.2518  0.5741  0.5305
  170SAPE   H2X19129   4.906   6.951   3.692  1.1793 -1.6978  1.0376
  170SAPE   H2Y19130   4.839   6.793   3.729  1.6810  0.6817 -0.5678
  170SAPE   C2319131   4.547   6.514   3.527  0.5260  0.0421  0.2411
  170SAPE   H3R19132   4.539   6.625   3.530 -0.0201  0.1492 -2.3328
  170SAPE   H3S19133   4.629   6.485   3.595  0.4311 -0.0186  0.3281
  170SAPE   C2419134   4.408   6.451   3.560  0.2803 -0.6611 -0.4177
  170SAPE   H4R19135   4.349   6.456   3.466  1.5484  4.1265 -1.2589
  170SAPE   H4S19136   4.355   6.518   3.631  0.8955 -0.7303  0.1122
  170SAPE   C2519137   4.421   6.314   3.619  0.5002 -0.2251  0.5701
  170SAPE   H5R19138   4.447   6.237   3.544  1.2667 -0.2730  0.8790
  170SAPE   C2619139   4.389   6.268   3.741  0.4259  0.0640  0.3306
  170SAPE   H6R19140   4.414   6.164   3.763 -0.5144 -0.3187 -0.3651
  170SAPE   C2719141   4.342   6.346   3.858 -0.0843 -0.3603  0.7004
  170SAPE   H7R19142   4.282   6.282   3.927 -0.0720 -0.2905  0.7759
  170SAPE   H7S19143   4.284   6.430   3.816  1.1289  1.4620  2.4952
  170SAPE   C2819144   4.455   6.410   3.921 -0.2195 -0.2659 -0.8346
  170SAPE   H8R19145   4.543   6.347   3.943 -0.2843  0.4505  1.7215
  170SAPE   C2919146   4.465   6.534   3.962  0.4705 -0.1785 -0.7385
  170SAPE   H9R19147   4.565   6.564   3.996  0.2718  0.2860 -0.5519
  170SAPE  C21019148   4.361   6.644   3.948  0.8238 -0.7524  0.0045
  170SAPE  H10R19149   4.266   6.625   4.001 -0.6841  0.7189 -2.0019
  170SAPE  H10S19150   4.334   6.643   3.840 -0.9514 -0.2652  0.4195
  170SAPE  C21119151   4.414   6.787   3.979  0.8771  0.6105 -0.6624
  170SAPE  H11R19152   4.455   6.835   3.889  0.0927 -0.1175 -1.4395
  170SAPE  C21219153   4.401   6.849   4.090  0.0338 -0.6927 -0.8868
  170SAPE  H12R19154   4.464   6.937   4.114 -0.1017 -0.9092  0.3144
  170SAPE  C21319155   4.351   6.807   4.227 -0.5544  0.2323  0.2090
  170SAPE  H13R19156   4.269   6.734   4.210 -1.0299  1.0330 -1.0415
  170SAPE  H13S19157   4.296   6.897   4.261 -0.9537 -0.8153  2.5713
  170SAPE  C21419158   4.448   6.756   4.326 -0.9487 -0.4430 -0.2001
  170SAPE  H14R19159   4.554   6.751   4.298 -0.9891  1.8421 -0.9999
  170SAPE  C21519160   4.430   6.746   4.463  0.3718  0.1945 -0.6167
  170SAPE  H15R19161   4.505   6.700   4.529 -0.0878 -0.0809 -0.2752
  170SAPE  C21619162   4.298   6.769   4.535  0.2320 -0.0816 -0.4873
  170SAPE  H16R19163   4.325   6.725   4.634 -0.3179 -2.0379 -1.1804
  170SAPE  H16S19164   4.212   6.719   4.486 -0.2597 -0.1772  0.4515
  170SAPE  C21719165   4.273   6.918   4.559 -0.2801 -0.5522  0.5840
  170SAPE  H17R19166   4.232   6.960   4.465  0.9436 -0.8824 -0.1189
  170SAPE  H17S19167   4.372   6.961   4.584  0.8928 -1.9085 -1.4491
  170SAPE  C21819168   4.179   6.940   4.675 -0.0942 -0.0317  0.7500
  170SAPE  H18R19169   4.201   6.861   4.750  4.8454  0.6538  0.3455
  170SAPE  H18S19170   4.081   6.908   4.634 -0.7973  0.0962  2.2820
  170SAPE  C21919171   4.159   7.086   4.728  0.4614  0.5077  0.0553
  170SAPE  H19R19172   4.048   7.090   4.739 -0.2032  0.4499 -4.6017
  170SAPE  H19S19173   4.185   7.164   4.653 -2.7513  2.1132  0.4126
  170SAPE  C22019174   4.233   7.121   4.858  0.6614  0.1276  0.8708
  170SAPE  H20R19175   4.200   7.054   4.940  2.5203 -0.0882  1.4766
  170SAPE  H20S19176   4.195   7.219   4.896  0.1839  0.2713  0.0538
  170SAPE  H20T19177   4.341   7.133   4.836  0.4738 -0.5744 -0.5322
  170SAPE   C3319178   4.699   6.960   3.771  0.4521 -0.4698  0.1318
  170SAPE   H3X19179   4.617   6.885   3.775 -0.1814  0.1519 -0.6538
  170SAPE   H3Y19180   4.651   7.052   3.730  0.2764 -0.6949 -0.1739
  170SAPE   C3419181   4.751   6.987   3.918  0.6829  0.3747  0.0238
  170SAPE   H4X19182   4.660   7.022   3.970  0.3234  0.6266 -0.7709
  170SAPE   H4Y19183   4.833   7.062   3.922  0.5608  0.5555  4.4086
  170SAPE   C3519184   4.796   6.855   3.989 -0.9138  0.4301 -0.3295
  170SAPE   H5X19185   4.880   6.810   3.932 -1.5449 -0.3670 -0.6448
  170SAPE   H5Y19186   4.712   6.783   3.999 -0.5454  0.2172  1.5286
  170SAPE   C3619187   4.849   6.879   4.128  0.2865  0.4063 -1.3721
  170SAPE   H6X19188   4.937   6.946   4.130 -0.6600  1.6858 -0.7477
  170SAPE   H6Y19189   4.884   6.782   4.167  1.1991  1.0980 -0.4119
  170SAPE   C3719190   4.750   6.945   4.221 -0.0722  0.1434  0.3855
  170SAPE   H7X19191   4.651   6.901   4.195 -0.0541  0.7236 -0.7327
  170SAPE   H7Y19192   4.736   7.053   4.203 -0.9982 -0.1207 -0.5390
  170SAPE   C3819193   4.782   6.917   4.371  0.0853  0.1473  0.6026
  170SAPE   H8X19194   4.892   6.927   4.365  0.1407 -1.2318 -2.7115
  170SAPE   H8Y19195   4.758   6.812   4.398 -2.1881  0.7054  0.9696
  170SAPE   C3919196   4.732   7.023   4.473  0.0954  0.8153 -0.3576
  170SAPE   H9X19197   4.625   7.043   4.455 -0.3229 -1.2872 -0.4492
  170SAPE   H9Y19198   4.786   7.117   4.446  0.4402  1.3852  2.1279
  170SAPE  C31019199   4.744   6.975   4.620  0.2653  0.5418 -0.6359
  170SAPE  H10X19200   4.837   6.916   4.635 -0.0164  0.5196  1.2399
  170SAPE  H10Y19201   4.661   6.903   4.635  1.3024 -0.7088 -0.7690
  170SAPE  C31119202   4.730   7.091   4.714  0.1517 -0.5489 -0.0572
  170SAPE  H11X19203   4.621   7.113   4.711  0.1133 -0.5756  0.8278
  170SAPE  H11Y19204   4.791   7.178   4.679 -1.6782  0.0386 -1.9576
  170SAPE  C31219205   4.762   7.073   4.860 -0.5243  0.7367  0.4676
  170SAPE  H12X19206   4.706   6.983   4.892 -1.7377  1.5355  0.6747
  170SAPE  H12Y19207   4.733   7.160   4.924  1.4148  2.0876 -0.3940
  170SAPE  C31319208   4.905   7.039   4.898 -0.2847  0.1999  0.5916
  170SAPE  H13X19209   4.962   7.044   4.803  0.9087 -1.7710  1.1374
  170SAPE  H13Y19210   4.926   6.936   4.933 -1.4570  0.3297  1.7726
  170SAPE  C31419211   4.957   7.137   5.003  0.1057  0.7370  0.3385
  170SAPE  H14X19212   4.897   7.127   5.096  0.4348  0.5346  0.5300
  170SAPE  H14Y19213   4.935   7.241   4.971 -1.5407  0.1765 -0.5172
  170SAPE  C31519214   5.104   7.114   5.040 -0.0230 -0.4884  0.6622
  170SAPE  H15X19215   5.119   7.035   5.118  2.8528 -0.5013  0.2263
  170SAPE  H15Y19216   5.145   7.209   5.081 -1.8853  0.2150  0.9711
  170SAPE  C31619217   5.199   7.078   4.927 -0.9899  0.0809  0.0656
  170SAPE  H16X19218   5.169   6.976   4.892 -3.7455  0.3091  1.5130
  170SAPE  H16Y19219   5.302   7.079   4.970  0.0953 -1.6083 -2.2388
  170SAPE  C31719220   5.199   7.175   4.802  0.2488  0.1588 -0.6984
  170SAPE  H17X19221   5.172   7.275   4.842  1.5914  0.3736 -0.2721
  170SAPE  H17Y19222   5.127   7.144   4.724  0.7287  4.2600 -2.9882
  170SAPE  C31819223   5.341   7.192   4.744  0.8580  0.1927 -0.5566
  170SAPE  H18X19224   5.389   7.104   4.696  0.6152  0.2263 -0.8671
  170SAPE  H18Y19225   5.391   7.240   4.831 -1.0686  2.5388 -0.6354
  170SAPE  H18Z19226   5.341   7.269   4.664  2.8757  2.7842  1.7308
  171SAPE     N19227   4.601   5.768   2.720 -0.0725 -0.2805 -0.7104
  171SAPE   HN119228   4.672   5.692   2.725  1.6565  1.2873 -0.1904
  171SAPE   HN219229   4.515   5.758   2.778 -0.0834 -0.1285 -0.6999
  171SAPE   HN319230   4.575   5.762   2.619  0.1826 -0.3547 -0.7736
  171SAPE   C1219231   4.650   5.905   2.759  0.2296  0.3122  0.4845
  171SAPE  H12A19232   4.759   5.885   2.771 -0.2985 -1.9962  2.1916
  171SAPE  H12B19233   4.625   5.927   2.865  1.2627  0.6359  0.6760
  171SAPE   C1119234   4.611   6.019   2.666  0.4435 -0.4999  0.1099
  171SAPE  H11A19235   4.688   6.026   2.587 -1.7785 -1.0768 -2.2683
  171SAPE  H11B19236   4.610   6.115   2.721  0.0524  0.1889 -1.0708
  171SAPE     P19237   4.400   6.114   2.560  0.2857 -0.0698 -0.0893
  171SAPE   O1319238   4.476   6.225   2.496 -0.3621  0.6256  0.0001
  171SAPE   O1419239   4.276   6.069   2.497 -0.2760  0.1759 -0.3709
  171SAPE   O1219240   4.486   5.986   2.592  0.4150  0.0705 -0.1119
  171SAPE   O1119241   4.359   6.156   2.709 -0.3044  0.1371 -0.0931
  171SAPE    C119242   4.297   6.064   2.795  0.7126 -0.5236  0.3181
  171SAPE    HA19243   4.192   6.061   2.761  0.8965 -1.0550 -0.2210
  171SAPE    HB19244   4.346   5.965   2.782  1.4132 -0.0518 -0.8040
  171SAPE    C219245   4.306   6.112   2.938  0.2796 -0.4878  0.4848
  171SAPE    HS19246   4.269   6.217   2.939 -0.4862 -0.7528  1.0015
  171SAPE   O2119247   4.438   6.092   2.982 -0.3798  0.5995  0.2821
  171SAPE   C2119248   4.485   6.172   3.070  0.3890 -0.5642 -0.1193
  171SAPE   O2219249   4.438   6.284   3.099 -0.0048  0.3819  0.1678
  171SAPE   C2219250   4.603   6.111   3.132  0.5212  0.4028 -0.0883
  171SAPE   H2R19251   4.645   6.037   3.059 -0.4852  0.0015 -0.2846
  171SAPE   H2S19252   4.673   6.189   3.166  0.2405  0.0639  1.3172
  171SAPE    C319253   4.204   6.030   3.027  0.1150  0.1264 -0.6624
  171SAPE    HX19254   4.238   5.925   3.014 -1.5726 -0.1727 -3.2013
  171SAPE    HY19255   4.107   6.038   2.974 -0.5456  3.4800  0.7561
  171SAPE   O3119256   4.186   6.069   3.167  0.1391  0.3923  0.0678
  171SAPE   C3119257   4.146   6.196   3.182 -0.5489  0.2076 -0.2796
  171SAPE   O3219258   4.111   6.273   3.098 -0.0320 -0.0645  0.2189
  171SAPE   C3219259   4.153   6.229   3.329  0.3183 -0.0565  0.6188
  171SAPE   H2X19260   4.206   6.326   3.334 -0.9319  0.7256 -0.6182
  171SAPE   H2Y19261   4.207   6.152   3.388 -0.0299 -0.8700 -0.0995
  171SAPE   C2319262   4.555   6.036   3.262 -1.1034 -0.2081 -0.0493
  171SAPE   H3R19263   4.474   5.966   3.232  0.2006 -0.3571 -3.8230
  171SAPE   H3S19264   4.508   6.110   3.330  0.8898  0.0988  1.0693
  171SAPE   C2419265   4.674   5.981   3.347 -0.1971 -0.0985  0.8240
  171SAPE   H4R19266   4.736   5.913   3.285  1.7428  0.1360  2.3991
  171SAPE   H4S19267   4.642   5.918   3.433 -0.5973  1.0860  1.5682
  171SAPE   C2519268   4.777   6.082   3.393 -0.1076  0.5790  0.4848
  171SAPE   H5R19269   4.855   6.113   3.321 -1.3458  0.3550 -1.0132
  171SAPE   C2619270   4.805   6.127   3.519  0.1861  0.6403 -0.4003
  171SAPE   H6R19271   4.892   6.193   3.531  0.1392  0.8565 -1.1967
  171SAPE   C2719272   4.742   6.084   3.654  0.6169  0.6666 -0.8174
  171SAPE   H7R19273   4.651   6.021   3.643  0.1711  0.9044  1.1629
  171SAPE   H7S19274   4.693   6.168   3.708 -2.9935 -1.9144  0.2740
  171SAPE   C2819275   4.846   6.009   3.734  0.3615 -0.3113  0.6618
  171SAPE   H8R19276   4.897   5.923   3.689  0.2492  0.4488 -0.9714
  171SAPE   C2919277   4.865   6.037   3.865  0.3275  0.9377  0.2883
  171SAPE   H9R19278   4.938   5.967   3.908 -0.6022 -2.0793 -2.5910
  171SAPE  C21019279   4.789   6.128   3.956  0.5453 -0.3746  0.2141
  171SAPE  H10R19280   4.777   6.079   4.055 -0.6519 -0.2417  0.1435
  171SAPE  H10S19281   4.688   6.147   3.915  0.6038  1.1308  0.6939
  171SAPE  C21119282   4.856   6.266   3.964 -0.1345  0.2290 -0.0291
  171SAPE  H11R19283   4.919   6.295   3.878 -0.3732  1.5528  0.2224
  171SAPE  C21219284   4.840   6.340   4.074 -0.0540 -0.5366 -0.2812
  171SAPE  H12R19285   4.883   6.440   4.062 -0.4949 -0.2642  0.3709
  171SAPE  C21319286   4.760   6.318   4.197  0.3773 -0.7128  0.2753
  171SAPE  H13R19287   4.815   6.249   4.264 -0.9586 -0.9355  1.1700
  171SAPE  H13S19288   4.667   6.260   4.178  1.1562 -1.6731 -0.7566
  171SAPE  C21419289   4.744   6.456   4.273 -0.6690 -0.1218  0.4912
  171SAPE  H14R19290   4.664   6.518   4.229 -0.3259 -0.4801 -0.6895
  171SAPE  C21519291   4.819   6.499   4.375 -0.0837  0.6970 -0.5248
  171SAPE  H15R19292   4.806   6.596   4.425  2.9561  1.4864 -1.0630
  171SAPE  C21619293   4.924   6.411   4.450 -0.7123 -0.9862 -0.1882
  171SAPE  H16R19294   5.021   6.457   4.423 -1.6684  1.5997  0.4574
  171SAPE  H16S19295   4.934   6.309   4.406  0.8141  0.0964 -2.5682
  171SAPE  C21719296   4.910   6.406   4.603 -0.9535  0.1554 -0.1728
  171SAPE  H17R19297   4.933   6.307   4.649 -1.7801  0.4454  0.9094
  171SAPE  H17S19298   4.810   6.431   4.645 -0.0723  1.0466  1.4856
  171SAPE  C21819299   5.004   6.508   4.674 -0.2609  0.6853  0.0007
  171SAPE  H18R19300   5.105   6.464   4.659 -0.0834  0.6681  1.1632
  171SAPE  H18S19301   4.986   6.505   4.783  0.4696 -2.7153  0.1452
  171SAPE  C21919302   5.017   6.645   4.608 -0.3544  0.0703  0.5232
  171SAPE  H19R19303   4.913   6.672   4.576 -0.3484 -0.8283 -0.2789
  171SAPE  H19S19304   5.079   6.645   4.516 -0.5583 -3.4361  0.2588
  171SAPE  C22019305   5.084   6.743   4.708 -0.4736  0.2605 -0.0298
  171SAPE  H20R19306   5.108   6.832   4.645  1.4295  0.1229  0.4255
  171SAPE  H20S19307   5.177   6.701   4.753  0.1141  2.0759  0.5384
  171SAPE  H20T19308   5.020   6.774   4.793 -0.1385  1.6843 -0.2703
  171SAPE   C3319309   4.011   6.258   3.380  0.3750  0.1740 -0.3189
  171SAPE   H3X19310   3.934   6.179   3.366  1.8897 -1.6046  0.9521
  171SAPE   H3Y19311   3.974   6.354   3.338 -0.3002  0.7491  1.4933
  171SAPE   C3419312   4.025   6.302   3.531  0.7854  0.2461  0.3871
  171SAPE   H4X19313   4.109   6.371   3.555  1.5648 -1.3794  2.7699
  171SAPE   H4Y19314   4.052   6.211   3.588  0.1300 -1.0151 -1.2562
  171SAPE   C3519315   3.891   6.352   3.588 -0.3586 -0.1725  0.3219
  171SAPE   H5X19316   3.819   6.267   3.593  0.0499 -0.4760  1.2910
  171SAPE   H5Y19317   3.836   6.414   3.514 -1.1421 -1.0471  0.1574
  171SAPE   C3619318   3.902   6.432   3.716  0.4230 -0.0171 -0.3388
  171SAPE   H6X19319   3.807   6.487   3.737 -0.8266 -2.9632  2.7176
  171SAPE   H6Y19320   3.967   6.520   3.704  0.5085 -0.1802 -1.0996
  171SAPE   C3719321   3.949   6.357   3.843 -0.2919 -0.2790 -0.3913
  171SAPE   H7X19322   4.054   6.325   3.827  0.0557  0.5181  0.2235
  171SAPE   H7Y19323   3.893   6.263   3.863  2.1016 -1.3279  1.9813
  171SAPE   C3819324   3.928   6.456   3.960 -0.0729  0.2363 -0.0096
  171SAPE   H8X19325   3.821   6.486   3.954  0.4403  2.5869  1.1866
  171SAPE   H8Y19326   3.986   6.545   3.929  0.2199  0.7889  1.9868
  171SAPE   C3919327   3.968   6.392   4.093  0.1294  0.0107  0.5166
  171SAPE   H9X19328   4.078   6.373   4.095  0.3211  1.0810  0.6321
  171SAPE   H9Y19329   3.911   6.296   4.083  0.5133 -0.1383 -0.3221
  171SAPE  C31019330   3.908   6.474   4.212 -0.0732 -0.4136  0.1765
  171SAPE  H10X19331   3.901   6.414   4.306  3.0703 -1.7173 -0.3183
  171SAPE  H10Y19332   3.804   6.499   4.183 -0.3559 -1.0947  0.5801
  171SAPE  C31119333   3.976   6.610   4.246  0.6246  0.3032  0.4744
  171SAPE  H11X19334   4.014   6.664   4.157  2.2452 -1.2176  0.1967
  171SAPE  H11Y19335   4.063   6.580   4.307  0.1131 -0.5923  0.7835
  171SAPE  C31219336   3.886   6.696   4.338  0.5080 -0.3171  0.0425
  171SAPE  H12X19337   3.858   6.645   4.433  0.5051  0.8180  0.6727
  171SAPE  H12Y19338   3.794   6.703   4.276  0.9741  1.5171 -0.4937
  171SAPE  C31319339   3.936   6.836   4.353  0.4063  0.1758 -0.2140
  171SAPE  H13X19340   3.964   6.879   4.255 -0.4237  1.1761 -0.0340
  171SAPE  H13Y19341   4.031   6.839   4.411 -0.9678  1.4155  2.1220
  171SAPE  C31419342   3.832   6.930   4.412 -0.5991 -0.9249  0.7017
  171SAPE  H14X19343   3.868   6.971   4.509  2.0742 -0.2914 -0.4466
  171SAPE  H14Y19344   3.750   6.861   4.440  0.1158 -3.1278 -2.1101
  171SAPE  C31519345   3.782   7.025   4.297  1.0104  0.4519  0.7514
  171SAPE  H15X19346   3.758   6.969   4.204 -3.2063  2.6248  0.2956
  171SAPE  H15Y19347   3.862   7.094   4.263  2.5494 -2.3644 -1.9095
  171SAPE  C31619348   3.659   7.107   4.346 -0.2563  0.1157 -0.3190
  171SAPE  H16X19349   3.683   7.145   4.448 -2.3113  0.5883  0.0348
  171SAPE  H16Y19350   3.576   7.033   4.347  0.9444 -1.2692  0.2106
  171SAPE  C31719351   3.623   7.221   4.253 -0.0891  0.1523 -0.7554
  171SAPE  H17X19352   3.593   7.188   4.152 -0.4628  0.4408 -0.7370
  171SAPE  H17Y19353   3.703   7.295   4.232 -0.0823  1.1279  2.1446
  171SAPE  C31819354   3.496   7.302   4.304 -0.1025  0.1849 -0.1087
  171SAPE  H18X19355   3.484   7.394   4.243  2.1954  0.6854  0.1216
  171SAPE  H18Y19356   3.517   7.333   4.408 -0.8937  0.9286 -0.1606
  171SAPE  H18Z19357   3.409   7.233   4.299  0.8209 -1.0828  0.7758
  172SAPE     N19358   3.389   6.904   2.515  0.6769 -0.9021 -1.1520
  172SAPE   HN119359   3.296   6.948   2.526 -0.3900 -2.6774 -2.6436
  172SAPE   HN219360   3.378   6.832   2.588 -0.3079  1.6317  1.3919
  172SAPE   HN319361   3.472   6.959   2.547  0.1873 -0.0988 -1.2367
  172SAPE   C1219362   3.417   6.832   2.387 -0.3669 -0.0619 -0.3812
  172SAPE  H12A19363   3.506   6.768   2.405 -1.0265 -1.4548 -1.7938
  172SAPE  H12B19364   3.436   6.911   2.312  0.1061  0.1820 -0.0080
  172SAPE   C1119365   3.295   6.757   2.337  0.7600 -0.0993 -0.1502
  172SAPE  H11A19366   3.302   6.709   2.237  1.3833  1.2491 -0.7867
  172SAPE  H11B19367   3.206   6.824   2.331 -0.1216 -1.3460 -1.3858
  172SAPE     P19368   3.310   6.511   2.427 -0.1499  0.1689  0.0396
  172SAPE   O1319369   3.245   6.445   2.310  0.5912  0.2546  0.0010
  172SAPE   O1419370   3.455   6.503   2.426 -0.2532 -0.2368 -0.2059
  172SAPE   O1219371   3.266   6.662   2.439  0.4953  0.5765  0.9888
  172SAPE   O1119372   3.269   6.439   2.560  1.0843 -0.4771  0.7476
  172SAPE    C119373   3.152   6.473   2.636 -0.6256  0.0337 -0.3135
  172SAPE    HA19374   3.065   6.499   2.572 -1.2080  0.3388  0.5858
  172SAPE    HB19375   3.134   6.376   2.686  2.9052  0.0491  1.3600
  172SAPE    C219376   3.171   6.567   2.751 -1.1742  0.8761  0.0666
  172SAPE    HS19377   3.161   6.674   2.721  0.0245  0.8981 -0.3272
  172SAPE   O2119378   3.293   6.547   2.822 -0.1437  0.0901 -0.6777
  172SAPE   C2119379   3.387   6.643   2.807 -0.3790  0.4780 -0.5451
  172SAPE   O2219380   3.379   6.732   2.721 -0.3690 -0.3601 -0.7106
  172SAPE   C2219381   3.513   6.616   2.900  0.3218 -0.3953 -0.1930
  172SAPE   H2R19382   3.510   6.513   2.942 -1.4342  0.5602  2.1842
  172SAPE   H2S19383   3.596   6.613   2.826  2.2490  0.1033  1.8481
  172SAPE    C319384   3.058   6.535   2.864  0.2373 -0.2299  0.6368
  172SAPE    HX19385   3.074   6.428   2.892 -1.1320 -0.7324 -0.3701
  172SAPE    HY19386   2.964   6.532   2.805  2.0691 -0.6430 -2.5664
  172SAPE   O3119387   3.057   6.626   2.971  0.2632 -0.0575  0.1674
  172SAPE   C3119388   3.126   6.588   3.081  0.4531 -0.0637  0.0249
  172SAPE   O3219389   3.173   6.478   3.098  0.4510  0.3460 -0.3259
  172SAPE   C3219390   3.118   6.704   3.183 -0.1618  0.5518 -0.2314
  172SAPE   H2X19391   3.012   6.735   3.196  0.4856  2.4769  0.7941
  172SAPE   H2Y19392   3.164   6.794   3.138  0.7710  2.2083  3.6274
  172SAPE   C2319393   3.546   6.729   2.999 -0.0112 -0.6193  0.1622
  172SAPE   H3R19394   3.462   6.728   3.071 -0.8155 -1.0422 -0.7728
  172SAPE   H3S19395   3.539   6.826   2.946 -0.3192  2.0545  4.5232
  172SAPE   C2419396   3.684   6.717   3.063  0.4493  0.0785  0.0764
  172SAPE   H4R19397   3.753   6.725   2.976  0.6728 -0.3273  0.2186
  172SAPE   H4S19398   3.693   6.623   3.121 -2.2802 -1.5253 -1.8726
  172SAPE   C2519399   3.707   6.839   3.153 -1.1059  0.2666 -0.3856
  172SAPE   H5R19400   3.741   6.936   3.113  1.7039 -1.1744 -1.7587
  172SAPE   C2619401   3.686   6.835   3.288 -0.3983 -0.3478  0.2568
  172SAPE   H6R19402   3.681   6.929   3.344 -1.2100  0.2253 -0.7445
  172SAPE   C2719403   3.644   6.715   3.358  0.9617  0.7569 -0.2201
  172SAPE   H7R19404   3.721   6.648   3.401 -0.3054 -0.2929  0.5021
  172SAPE   H7S19405   3.578   6.655   3.293 -1.4045  3.4837 -0.5530
  172SAPE   C2819406   3.552   6.751   3.464 -0.0419 -0.0770 -0.1448
  172SAPE   H8R19407   3.451   6.777   3.431 -0.8931 -3.0778 -0.1861
  172SAPE   C2919408   3.586   6.770   3.591  0.5522  0.5017  0.4254
  172SAPE   H9R19409   3.510   6.777   3.670  0.0751 -1.1149  0.1445
  172SAPE  C21019410   3.721   6.769   3.659  1.0980 -0.7491  0.0730
  172SAPE  H10R19411   3.803   6.776   3.585 -0.1594 -1.5123 -1.4640
  172SAPE  H10S19412   3.730   6.669   3.708  0.7129 -0.9994 -0.3494
  172SAPE  C21119413   3.752   6.867   3.769  1.0153  0.1678 -0.1506
  172SAPE  H11R19414   3.806   6.957   3.735  2.4987 -0.2497  0.9796
  172SAPE  C21219415   3.708   6.859   3.896  0.6475 -0.6182 -0.2670
  172SAPE  H12R19416   3.738   6.934   3.971 -2.4433  1.4183 -0.8938
  172SAPE  C21319417   3.633   6.745   3.964  0.1991 -0.3814  0.2495
  172SAPE  H13R19418   3.654   6.753   4.073  5.4830  2.1297 -0.6221
  172SAPE  H13S19419   3.677   6.649   3.932 -0.6717 -0.4155 -0.9043
  172SAPE  C21419420   3.489   6.724   3.928 -0.3721  0.7929  0.2985
  172SAPE  H14R19421   3.471   6.645   3.853  2.7924  0.6010 -0.3978
  172SAPE  C21519422   3.384   6.801   3.973 -0.2745  0.4148 -0.3725
  172SAPE  H15R19423   3.281   6.779   3.942 -1.1782 -0.7666  2.9903
  172SAPE  C21619424   3.388   6.928   4.063  0.1430 -0.5864  0.1498
  172SAPE  H16R19425   3.346   7.014   4.007 -0.9676 -0.1029  1.6667
  172SAPE  H16S19426   3.489   6.961   4.099 -0.5851 -0.1447  1.9094
  172SAPE  C21719427   3.300   6.913   4.188  0.0850 -1.4153  0.2615
  172SAPE  H17R19428   3.192   6.913   4.161 -0.1510  0.4561  1.0241
  172SAPE  H17S19429   3.316   7.005   4.248  0.3059 -0.9461 -0.5028
  172SAPE  C21819430   3.331   6.798   4.283  1.0995 -0.1871 -0.6139
  172SAPE  H18R19431   3.442   6.793   4.292  1.0772  0.9515  0.8119
  172SAPE  H18S19432   3.303   6.697   4.247 -0.6033  0.3453 -0.8588
  172SAPE  C21919433   3.274   6.816   4.426 -0.8028  0.0200  1.2710
  172SAPE  H19R19434   3.298   6.720   4.477 -0.2191 -0.5430 -0.0268
  172SAPE  H19S19435   3.163   6.825   4.430 -0.9823 -1.0500 -0.2769
  172SAPE  C22019436   3.331   6.939   4.506 -0.1708  0.2266 -0.0080
  172SAPE  H20R19437   3.287   7.030   4.460 -2.5852 -0.8752 -0.0359
  172SAPE  H20S19438   3.442   6.942   4.501 -0.1895  3.0347 -0.4669
  172SAPE  H20T19439   3.305   6.932   4.613  1.8188 -1.5695  0.4115
  172SAPE   C3319440   3.190   6.666   3.317 -0.7906  0.2914 -0.8314
  172SAPE   H3X19441   3.189   6.767   3.362  1.1478  0.6032 -1.4048
  172SAPE   H3Y19442   3.296   6.640   3.296 -1.4071 -1.6209 -1.8494
  172SAPE   C3419443   3.114   6.575   3.413 -0.1207  0.5499 -0.2088
  172SAPE   H4X19444   3.146   6.469   3.400  0.2493  0.5563  0.6108
  172SAPE   H4Y19445   3.007   6.581   3.384 -0.3851 -0.2240  0.5608
  172SAPE   C3519446   3.132   6.606   3.565 -0.7467 -0.8579  0.3731
  172SAPE   H5X19447   3.073   6.700   3.578 -0.9546 -0.7803 -0.8995
  172SAPE   H5Y19448   3.240   6.629   3.575 -0.9167  0.2404 -0.1562
  172SAPE   C3619449   3.094   6.499   3.667  0.2023  0.8297 -0.4181
  172SAPE   H6X19450   3.152   6.409   3.636 -0.8968 -1.2249  3.0408
  172SAPE   H6Y19451   2.988   6.481   3.637  0.0315 -2.8499  1.9096
  172SAPE   C3719452   3.101   6.547   3.811  0.0695 -0.1161  0.1880
  172SAPE   H7X19453   3.170   6.633   3.824  0.8503 -0.4930 -1.2195
  172SAPE   H7Y19454   3.140   6.466   3.877 -0.8432  1.4096  2.7067
  172SAPE   C3819455   2.966   6.592   3.860 -0.6615 -0.3114  0.3787
  172SAPE   H8X19456   2.891   6.519   3.823 -1.8361  1.6284 -1.3469
  172SAPE   H8Y19457   2.935   6.688   3.812  0.4147 -1.0262 -1.9344
  172SAPE   C3919458   2.954   6.619   4.009  0.2676  0.1915 -0.0815
  172SAPE   H9X19459   2.846   6.631   4.032  0.3815 -1.2131  1.3750
  172SAPE   H9Y19460   3.005   6.717   4.014 -2.1422  1.6460 -2.0542
  172SAPE  C31019461   3.000   6.516   4.104  0.3091 -0.0936 -0.1132
  172SAPE  H10X19462   3.111   6.504   4.109  0.1892 -2.1580 -1.3408
  172SAPE  H10Y19463   2.968   6.414   4.074 -1.7594  0.4535  0.0977
  172SAPE  C31119464   2.942   6.533   4.253  0.2527 -0.0465  0.7226
  172SAPE  H11X19465   2.853   6.468   4.264 -0.3993  0.5652 -0.6816
  172SAPE  H11Y19466   2.887   6.629   4.249  0.1132 -0.1126 -3.5318
  172SAPE  C31219467   3.046   6.546   4.365  0.2565  0.1336 -0.2512
  172SAPE  H12X19468   3.004   6.607   4.448 -0.9695  0.9487 -1.4331
  172SAPE  H12Y19469   3.134   6.597   4.320 -0.0015 -0.0461 -0.9831
  172SAPE  C31319470   3.080   6.407   4.422 -0.5433 -0.1828  0.4004
  172SAPE  H13X19471   3.165   6.418   4.492  0.3502  0.8384 -0.7793
  172SAPE  H13Y19472   3.104   6.342   4.335 -0.1921  0.4194  0.0407
  172SAPE  C31419473   2.957   6.357   4.502 -0.3327 -0.5341 -0.0792
  172SAPE  H14X19474   2.877   6.373   4.426  0.3717 -0.4369 -0.8148
  172SAPE  H14Y19475   2.935   6.424   4.588 -1.2310  0.4535 -1.0436
  172SAPE  C31519476   2.961   6.209   4.550 -0.4114  0.2545  0.7341
  172SAPE  H15X19477   3.024   6.211   4.641  2.0197  0.3212 -0.8649
  172SAPE  H15Y19478   3.017   6.143   4.480 -2.1586  0.0659 -0.5659
  172SAPE  C31619479   2.826   6.133   4.565 -0.6090 -0.1609  0.3629
  172SAPE  H16X19480   2.842   6.049   4.635  0.9711 -0.1717  0.0280
  172SAPE  H16Y19481   2.812   6.084   4.466 -1.2098 -2.7344  1.6418
  172SAPE  C31719482   2.704   6.208   4.613 -0.5895  0.7412 -0.0592
  172SAPE  H17X19483   2.615   6.143   4.595 -0.9147  1.4946 -1.2827
  172SAPE  H17Y19484   2.682   6.298   4.551 -1.1707 -0.3330 -1.4624
  172SAPE  C31819485   2.716   6.267   4.758 -0.5690  0.1815  0.8634
  172SAPE  H18X19486   2.762   6.198   4.832  0.7429 -0.3083 -0.3677
  172SAPE  H18Y19487   2.613   6.290   4.794 -1.1130 -1.0418  0.1633
  172SAPE  H18Z19488   2.778   6.359   4.760  2.4024 -1.3491 -3.7789
  173SLPC     N19489   2.606   1.273   7.119  0.1549  0.6128  0.1309
  173SLPC   C1319490   2.585   1.294   7.261  0.6428 -0.0934  0.4692
  173SLPC  H13A19491   2.599   1.401   7.270 -1.4552  0.1963  0.8478
  173SLPC  H13B19492   2.479   1.280   7.280 -0.0070  0.2759 -2.3671
  173SLPC  H13C19493   2.645   1.232   7.326  0.4109 -1.9610 -1.0397
  173SLPC   C1419494   2.750   1.251   7.109 -1.1073  0.3611  0.2129
  173SLPC  H14A19495   2.783   1.236   7.007 -1.2608 -2.0837  0.4694
  173SLPC  H14B19496   2.816   1.322   7.157 -0.7274 -0.5483  1.0520
  173SLPC  H14C19497   2.766   1.158   7.160 -2.3197  1.2452  2.3348
  173SLPC   C1519498   2.582   1.394   7.043  0.9120 -0.0187 -0.2816
  173SLPC  H15A19499   2.598   1.386   6.936  0.6466 -1.1425 -0.2496
  173SLPC  H15B19500   2.476   1.411   7.056  0.4999  0.8687 -3.7797
  173SLPC  H15C19501   2.646   1.476   7.072 -2.1668  3.1418 -1.5880
  173SLPC   C1219502   2.532   1.147   7.067  0.2989 -0.3719 -0.0659
  173SLPC  H12A19503   2.428   1.167   7.090  0.4803  1.0449 -0.3599
  173SLPC  H12B19504   2.572   1.061   7.119 -0.9216 -1.5175 -0.9426
  173SLPC   C1119505   2.547   1.111   6.913  0.3837  0.0049 -0.0078
  173SLPC  H11A19506   2.526   1.205   6.859  1.1938 -0.4051 -1.0577
  173SLPC  H11B19507   2.468   1.038   6.885  0.5629 -0.4739  0.6710
  173SLPC     P19508   2.724   0.916   6.904 -0.3067  0.0336 -0.3602
  173SLPC   O1319509   2.867   0.906   6.856  0.6670  0.0328 -0.0040
  173SLPC   O1419510   2.687   0.870   7.041 -0.4349 -0.2462 -0.3095
  173SLPC   O1219511   2.677   1.065   6.890  0.0381  0.2872 -0.2216
  173SLPC   O1119512   2.631   0.842   6.806  1.1440 -0.5746 -0.0578
  173SLPC    C119513   2.654   0.819   6.668 -0.0985 -0.2546  0.3364
  173SLPC    HA19514   2.758   0.848   6.643 -0.0882 -1.4747 -1.1964
  173SLPC    HB19515   2.638   0.710   6.650  0.0631 -0.0812 -0.9609
  173SLPC    C219516   2.556   0.893   6.569 -0.7015  0.3136 -0.4118
  173SLPC    HS19517   2.587   1.000   6.576  2.2907 -0.5215  0.7124
  173SLPC   O2119518   2.415   0.871   6.600  0.1687  0.7320 -0.3532
  173SLPC   C2119519   2.318   0.937   6.546 -0.1568  0.5417 -0.3851
  173SLPC   O2219520   2.327   1.035   6.473  0.3045  0.2791  0.1443
  173SLPC   C2219521   2.177   0.887   6.595  0.0183 -0.2540  0.5952
  173SLPC   H2R19522   2.203   0.796   6.654 -2.2710 -0.7615  0.9312
  173SLPC   H2S19523   2.139   0.959   6.670  1.3584  0.6077  0.4747
  173SLPC    C319524   2.590   0.827   6.433 -0.1925 -0.2539  0.2616
  173SLPC    HX19525   2.531   0.878   6.354  0.4266  0.4898  0.2536
  173SLPC    HY19526   2.554   0.723   6.423 -0.1225 -0.6139  2.8674
  173SLPC   O3119527   2.727   0.854   6.386  0.2654 -0.2336 -0.4130
  173SLPC   C3119528   2.765   0.983   6.338 -0.3033 -0.2583 -0.0972
  173SLPC   O3219529   2.692   1.082   6.341  0.0182 -0.0610 -0.1331
  173SLPC   C3219530   2.915   0.986   6.298 -0.7058  0.4272 -0.0374
  173SLPC   H2X19531   2.965   0.897   6.342 -1.5898 -0.4386 -0.7318
  173SLPC   H2Y19532   2.952   1.076   6.351  1.6218 -0.6153  0.2134
  173SLPC   C2319533   2.082   0.877   6.474  0.5712  0.5029 -0.2232
  173SLPC   H3R19534   2.064   0.979   6.435  0.4275  1.0424  1.1865
  173SLPC   H3S19535   1.986   0.840   6.517 -0.9042  1.9795 -2.0975
  173SLPC   C2419536   2.134   0.777   6.369 -0.3632  0.0150  0.1334
  173SLPC   H4R19537   2.167   0.683   6.418  3.1553  2.6566  3.4393
  173SLPC   H4S19538   2.227   0.807   6.317 -0.0745 -0.4795  0.3578
  173SLPC   C2519539   2.046   0.743   6.251  0.2150  0.3562  0.7534
  173SLPC   H5R19540   1.999   0.841   6.228 -2.1450 -1.1200 -1.2195
  173SLPC   H5S19541   1.959   0.681   6.284 -0.2461  1.9712  2.7824
  173SLPC   C2619542   2.132   0.685   6.132  0.0656  0.4252  0.2579
  173SLPC   H6R19543   2.145   0.579   6.160  0.8457  0.6674  0.8304
  173SLPC   H6S19544   2.231   0.734   6.126  0.0940  0.2564 -0.8341
  173SLPC   C2719545   2.044   0.702   6.002  0.2534  0.6149  0.0423
  173SLPC   H7R19546   1.940   0.671   6.027  0.7463 -0.0442  1.3583
  173SLPC   H7S19547   2.084   0.629   5.929 -0.9839  2.0596 -2.1939
  173SLPC   C2819548   2.050   0.840   5.937 -0.6086  0.0363 -0.4175
  173SLPC   H8R19549   2.151   0.861   5.895 -0.5890 -1.8740 -1.4377
  173SLPC   H8S19550   2.027   0.919   6.011 -1.7449  1.7313 -2.4528
  173SLPC   C2919551   1.952   0.846   5.822  0.6265 -0.2390  0.5530
  173SLPC   H9R19552   1.846   0.828   5.844  1.0996 -2.0079  1.5830
  173SLPC  C21019553   1.995   0.836   5.697  1.1129  0.2575  0.6816
  173SLPC  H10R19554   1.918   0.820   5.621  1.2162  1.0466  0.4109
  173SLPC  C21119555   2.134   0.814   5.647 -0.0502 -0.8725  0.6909
  173SLPC  H11R19556   2.119   0.762   5.549  1.4488  1.3116 -0.8042
  173SLPC  H11S19557   2.202   0.755   5.711  1.0839  0.2797  0.5908
  173SLPC  C21219558   2.204   0.943   5.609  0.0156  0.4444  0.1329
  173SLPC  H12R19559   2.213   1.011   5.695  2.6557  1.5916 -0.9363
  173SLPC  C21319560   2.259   0.976   5.484 -0.3776  0.2904 -0.5694
  173SLPC  H13R19561   2.290   1.080   5.468 -2.2534  0.6780 -2.1945
  173SLPC  C21419562   2.261   0.886   5.363  1.0142 -0.0225 -0.1400
  173SLPC  H14R19563   2.169   0.903   5.303  1.9823  0.8889 -1.4233
  173SLPC  H14S19564   2.262   0.776   5.380  0.0820  0.2414  1.9859
  173SLPC  C21519565   2.382   0.923   5.276 -0.2806  0.6204  0.1918
  173SLPC  H15R19566   2.410   0.842   5.206  1.6497  0.7472  0.7489
  173SLPC  H15S19567   2.472   0.943   5.339  0.6723 -1.9412 -0.2350
  173SLPC  C21619568   2.353   1.035   5.175  0.4082 -1.1138 -0.0065
  173SLPC  H16R19569   2.326   1.128   5.231  3.4121 -1.6125  2.5883
  173SLPC  H16S19570   2.269   1.011   5.107 -0.7806  0.1108  0.9538
  173SLPC  C21719571   2.468   1.076   5.087 -0.0397  0.0317  0.5172
  173SLPC  H17R19572   2.447   1.170   5.033 -0.7382 -1.2428 -1.5546
  173SLPC  H17S19573   2.481   0.991   5.016 -0.6705  0.1341  0.2748
  173SLPC  C21819574   2.595   1.095   5.172 -0.4588 -0.1659  0.8921
  173SLPC  H18R19575   2.571   1.144   5.268  1.0037 -0.3419  1.3747
  173SLPC  H18S19576   2.678   1.155   5.129  0.4455 -1.8323  0.2257
  173SLPC  H18T19577   2.635   0.993   5.190 -2.8646 -0.9363  2.2289
  173SLPC   C3319578   2.924   0.993   6.146  0.2524  0.0095 -0.0759
  173SLPC   H3X19579   2.854   0.920   6.103 -0.9939  0.4448  1.1446
  173SLPC   H3Y19580   3.027   0.966   6.113 -0.9601  0.3825 -4.7840
  173SLPC   C3419581   2.894   1.136   6.096 -0.8074  0.8591 -0.2347
  173SLPC   H4X19582   2.959   1.214   6.142 -0.1594  0.0277  0.2861
  173SLPC   H4Y19583   2.791   1.168   6.119 -1.2623 -0.5229 -0.2796
  173SLPC   C3519584   2.936   1.160   5.948  0.7716  0.3887 -0.2355
  173SLPC   H5X19585   3.046   1.164   5.935  0.6529  0.9743 -1.1470
  173SLPC   H5Y19586   2.900   1.255   5.903 -0.3977 -0.9621 -2.2985
  173SLPC   C3619587   2.889   1.052   5.851  0.2464 -0.0494  0.4860
  173SLPC   H6X19588   2.778   1.045   5.849  0.1825 -0.0856  2.2389
  173SLPC   H6Y19589   2.924   0.951   5.881  3.8301  0.9028  0.0530
  173SLPC   C3719590   2.937   1.079   5.706 -0.0841  0.4220 -0.2032
  173SLPC   H7X19591   3.043   1.045   5.703 -0.8096 -2.3585  1.7848
  173SLPC   H7Y19592   2.932   1.186   5.679  1.3079  0.6980  0.5510
  173SLPC   C3819593   2.853   0.993   5.601  0.2229 -0.0322  0.0594
  173SLPC   H8X19594   2.859   1.043   5.502  0.9782 -0.0126  0.1132
  173SLPC   H8Y19595   2.745   0.993   5.630  0.2669  0.3158  0.2230
  173SLPC   C3919596   2.904   0.848   5.594 -0.1147  0.1350 -0.1981
  173SLPC   H9X19597   2.907   0.799   5.693  0.8662  0.1701 -0.2053
  173SLPC   H9Y19598   3.012   0.840   5.569  0.2643  0.6983  1.1723
  173SLPC  C31019599   2.831   0.749   5.497 -0.6083 -0.0739  0.0521
  173SLPC  H10X19600   2.731   0.728   5.540  0.5582 -1.2012  2.4463
  173SLPC  H10Y19601   2.878   0.648   5.503  2.6039  1.1231 -2.0906
  173SLPC  C31119602   2.835   0.786   5.356  0.4133  0.1872  0.0582
  173SLPC  H11X19603   2.931   0.835   5.327 -0.5155  1.6687 -0.6521
  173SLPC  H11Y19604   2.759   0.865   5.341 -1.2548 -0.5906  3.6147
  173SLPC  C31219605   2.821   0.657   5.271  0.3398  0.0355  0.3367
  173SLPC  H12X19606   2.716   0.621   5.285 -0.1974  1.1481 -0.5946
  173SLPC  H12Y19607   2.895   0.579   5.297 -0.0667 -0.2762  0.5740
  173SLPC  C31319608   2.847   0.689   5.119  0.1995  0.2042 -0.9599
  173SLPC  H13X19609   2.942   0.746   5.104  0.8162 -0.7062 -0.6122
  173SLPC  H13Y19610   2.767   0.758   5.087  0.1626 -0.6200 -2.7431
  173SLPC  C31419611   2.859   0.567   5.035  1.2784 -0.3307 -0.5231
  173SLPC  H14X19612   2.768   0.507   5.016  1.8540 -1.1374 -0.7529
  173SLPC  H14Y19613   2.931   0.494   5.076  0.9715  0.0577  0.7576
  173SLPC  C31519614   2.909   0.617   4.893 -0.1190 -0.2174 -0.3747
  173SLPC  H15X19615   2.850   0.707   4.865  2.9161  1.2781 -2.4100
  173SLPC  H15Y19616   2.883   0.538   4.819 -1.2259 -0.7385  0.5266
  173SLPC  C31619617   3.056   0.652   4.895  0.1406  0.0135 -0.2177
  173SLPC  H16X19618   3.122   0.562   4.890  0.5113  0.2862 -0.2379
  173SLPC  H16Y19619   3.084   0.691   4.995 -0.9215 -1.4758  0.6996
  173SLPC  C31719620   3.087   0.750   4.776 -0.1783  0.2545  0.1563
  173SLPC  H17X19621   3.063   0.855   4.801  0.2402  0.1849  0.8618
  173SLPC  H17Y19622   3.024   0.709   4.693  2.0954 -1.7033 -0.7313
  173SLPC  C31819623   3.229   0.741   4.745  0.7021  0.5510 -0.1533
  173SLPC  H18X19624   3.258   0.804   4.658  0.0458 -2.8077 -3.0528
  173SLPC  H18Y19625   3.266   0.638   4.723  0.6078  0.5013 -0.0785
  173SLPC  H18Z19626   3.281   0.783   4.833  0.0437 -2.1745  1.6708
  174SLPC     N19627   5.139   1.844   7.306  0.5828  0.7422  0.1195
  174SLPC   C1319628   5.008   1.905   7.275 -0.7148  0.1398  0.4528
  174SLPC  H13A19629   4.973   1.975   7.349 -1.1064  0.2384  0.1711
  174SLPC  H13B19630   5.029   1.963   7.187  1.3394  0.9953  1.4247
  174SLPC  H13C19631   4.936   1.831   7.243  0.4341 -0.6350 -0.4535
  174SLPC   C1419632   5.142   1.778   7.439 -0.2160  0.2629  0.5206
  174SLPC  H14A19633   5.242   1.754   7.470 -0.0496  1.7362  1.2316
  174SLPC  H14B19634   5.090   1.824   7.522 -2.9298  0.6551 -1.2755
  174SLPC  H14C19635   5.095   1.683   7.420  0.9554  0.2503 -3.0135
  174SLPC   C1519636   5.240   1.956   7.307 -0.2632  0.5067 -0.5634
  174SLPC  H15A19637   5.232   2.012   7.214  1.7771  0.2530 -0.9303
  174SLPC  H15B19638   5.221   2.020   7.392  2.2274 -1.1632  1.4012
  174SLPC  H15C19639   5.341   1.920   7.322 -0.4366 -0.7733 -2.1491
  174SLPC   C1219640   5.182   1.760   7.189  0.2860  0.9929 -0.0950
  174SLPC  H12A19641   5.288   1.756   7.168  0.1377 -0.7638 -0.7004
  174SLPC  H12B19642   5.149   1.812   7.100 -0.4214  3.4301  1.4832
  174SLPC   C1119643   5.116   1.617   7.181  0.3096 -0.2693  0.3221
  174SLPC  H11A19644   5.164   1.553   7.258  1.0283 -2.2220 -1.6351
  174SLPC  H11B19645   5.158   1.576   7.086  2.0395  0.0168  0.9227
  174SLPC     P19646   4.869   1.630   7.062 -0.2663 -0.1498  0.3677
  174SLPC   O1319647   4.815   1.491   7.028 -0.1783 -0.3666 -0.4588
  174SLPC   O1419648   4.771   1.737   7.100 -0.4031  0.6113  0.0290
  174SLPC   O1219649   4.971   1.615   7.182 -0.6563 -0.3783  0.2366
  174SLPC   O1119650   4.954   1.679   6.934 -0.5537 -0.6597  0.0605
  174SLPC    C119651   4.944   1.813   6.891  0.0831  0.0231 -0.0809
  174SLPC    HA19652   4.953   1.886   6.974  2.1579  0.4629 -0.6341
  174SLPC    HB19653   5.036   1.832   6.832  2.0062 -1.4767  2.2338
  174SLPC    C219654   4.819   1.829   6.804 -0.3225 -0.4435 -0.1625
  174SLPC    HS19655   4.733   1.835   6.875 -0.6355 -1.4145 -0.4531
  174SLPC   O2119656   4.820   1.715   6.708  0.4156 -0.5197 -0.2408
  174SLPC   C2119657   4.696   1.695   6.659  0.2382  0.0302 -0.2221
  174SLPC   O2219658   4.598   1.756   6.699 -0.0813  0.1453  0.1474
  174SLPC   C2219659   4.688   1.587   6.549  0.1803 -0.4886 -0.7518
  174SLPC   H2R19660   4.761   1.627   6.475 -0.1151 -0.5319 -1.0670
  174SLPC   H2S19661   4.730   1.491   6.586 -0.4229 -0.4431  0.0587
  174SLPC    C319662   4.823   1.966   6.729  0.4392 -0.3428 -0.6432
  174SLPC    HX19663   4.840   2.037   6.812 -3.6656  0.7445 -0.4938
  174SLPC    HY19664   4.736   2.002   6.669  1.2685  0.9222 -1.1244
  174SLPC   O3119665   4.939   1.963   6.639 -0.8063  0.0200 -0.2069
  174SLPC   C3119666   4.908   1.926   6.512  0.4986 -0.6122  0.4889
  174SLPC   O3219667   4.797   1.914   6.463 -0.2310  0.1902  0.5290
  174SLPC   C3219668   5.031   1.925   6.430 -0.6025  0.1709  0.0496
  174SLPC   H2X19669   5.114   1.883   6.492 -0.8241  0.8154  0.7995
  174SLPC   H2Y19670   5.067   2.025   6.399 -0.2722 -0.1526 -0.6220
  174SLPC   C2319671   4.551   1.587   6.473 -0.4100 -0.1199  0.8062
  174SLPC   H3R19672   4.531   1.691   6.441 -0.7321  0.1315  1.7944
  174SLPC   H3S19673   4.466   1.546   6.532  0.4457 -2.1625  0.7187
  174SLPC   C2419674   4.571   1.501   6.339 -0.0841 -0.2361  0.2942
  174SLPC   H4R19675   4.606   1.402   6.377  0.4526  0.0914  0.6660
  174SLPC   H4S19676   4.657   1.546   6.285  1.9124 -0.6936  2.9333
  174SLPC   C2519677   4.448   1.478   6.251  0.5840 -0.2206 -0.4719
  174SLPC   H5R19678   4.413   1.574   6.207  0.2185 -0.5179 -0.8359
  174SLPC   H5S19679   4.367   1.424   6.304  0.1314 -0.4684 -1.4027
  174SLPC   C2619680   4.466   1.382   6.129  0.3339 -0.9963 -0.9658
  174SLPC   H6R19681   4.472   1.278   6.169 -1.5748 -0.3642  1.2109
  174SLPC   H6S19682   4.562   1.403   6.078 -0.3284  2.0062 -1.1585
  174SLPC   C2719683   4.345   1.375   6.035  0.0757 -0.0724  0.1885
  174SLPC   H7R19684   4.348   1.460   5.964 -0.2981  0.3794  0.7083
  174SLPC   H7S19685   4.258   1.384   6.104 -1.1808  0.4735 -1.4251
  174SLPC   C2819686   4.342   1.236   5.958 -0.3591  0.1150  0.0440
  174SLPC   H8R19687   4.339   1.154   6.032 -0.8777 -1.6775 -1.8588
  174SLPC   H8S19688   4.444   1.231   5.914 -0.5371  0.4677 -0.4151
  174SLPC   C2919689   4.234   1.212   5.855 -0.3568 -0.2148 -0.7190
  174SLPC   H9R19690   4.141   1.166   5.889  0.4357 -1.0834  0.3246
  174SLPC  C21019691   4.230   1.257   5.730  0.0993  0.6103 -0.8817
  174SLPC  H10R19692   4.134   1.243   5.677 -0.4150 -1.5497  0.4757
  174SLPC  C21119693   4.339   1.322   5.653  0.0775 -0.6949 -0.0521
  174SLPC  H11R19694   4.341   1.293   5.546 -1.3644  1.9253 -0.8955
  174SLPC  H11S19695   4.441   1.287   5.680 -0.0086  0.1271  1.4842
  174SLPC  C21219696   4.339   1.478   5.652  0.4531 -0.1206  0.7197
  174SLPC  H12R19697   4.289   1.525   5.738  0.4880  1.8787 -0.2901
  174SLPC  C21319698   4.390   1.555   5.558 -0.3779 -0.6061  0.3981
  174SLPC  H13R19699   4.388   1.661   5.587  1.4051 -0.5162  0.3274
  174SLPC  C21419700   4.473   1.513   5.438  0.2943  0.2093 -0.1484
  174SLPC  H14R19701   4.491   1.404   5.430  0.0553  0.2637 -1.8575
  174SLPC  H14S19702   4.576   1.551   5.458  0.0776  1.6550 -1.5721
  174SLPC  C21519703   4.419   1.565   5.303 -0.6337  0.1892  0.5830
  174SLPC  H15R19704   4.424   1.676   5.302 -0.6679  0.2097  1.7395
  174SLPC  H15S19705   4.310   1.543   5.302 -0.5745 -0.3536 -2.4233
  174SLPC  C21619706   4.481   1.493   5.181 -0.3441 -0.2452 -0.5199
  174SLPC  H16R19707   4.426   1.535   5.094  2.5100 -0.8162 -2.7509
  174SLPC  H16S19708   4.459   1.385   5.197 -0.9585 -0.0874 -0.2406
  174SLPC  C21719709   4.630   1.524   5.170 -0.6822 -0.4276 -0.1621
  174SLPC  H17R19710   4.668   1.471   5.080 -2.1595  0.7988 -1.5561
  174SLPC  H17S19711   4.698   1.481   5.247 -0.1688 -0.1156 -0.4355
  174SLPC  C21819712   4.662   1.671   5.142  0.5328 -0.1541  0.1764
  174SLPC  H18R19713   4.702   1.712   5.237  0.3061  2.0972 -0.6307
  174SLPC  H18S19714   4.572   1.723   5.103 -0.8254 -1.4310  1.5117
  174SLPC  H18T19715   4.738   1.671   5.060  1.0076 -3.5753  0.4839
  174SLPC   C3319716   5.024   1.844   6.301  0.3717  0.0642 -0.1899
  174SLPC   H3X19717   4.983   1.744   6.326 -2.5121  1.5341  1.4215
  174SLPC   H3Y19718   5.128   1.819   6.268 -0.2791 -0.3165 -2.0700
  174SLPC   C3419719   4.954   1.917   6.193  1.1616  0.5620  0.2756
  174SLPC   H4X19720   5.009   2.009   6.162  1.4477 -0.2281 -1.7066
  174SLPC   H4Y19721   4.855   1.953   6.228  2.4638  1.9094  2.8607
  174SLPC   C3519722   4.924   1.836   6.067  0.1683  0.2037  0.2933
  174SLPC   H5X19723   4.894   1.733   6.096  1.0870  0.5749  2.7990
  174SLPC   H5Y19724   5.017   1.833   6.006  0.4988  1.9228  0.6520
  174SLPC   C3619725   4.804   1.897   5.982  0.3547 -0.4170 -0.5008
  174SLPC   H6X19726   4.839   1.993   5.938 -1.6779  0.5202 -0.2417
  174SLPC   H6Y19727   4.720   1.929   6.048  1.4702  0.2406  0.6429
  174SLPC   C3719728   4.756   1.811   5.863 -0.1174 -0.1515 -0.7071
  174SLPC   H7X19729   4.686   1.729   5.891  0.2278 -0.2952 -0.2609
  174SLPC   H7Y19730   4.850   1.781   5.813 -0.3090  0.4306 -1.4342
  174SLPC   C3819731   4.681   1.892   5.749  0.0284  1.0543 -0.2447
  174SLPC   H8X19732   4.612   1.962   5.800  0.2470  0.3351  1.0701
  174SLPC   H8Y19733   4.616   1.815   5.702 -1.3189  2.4185 -0.6707
  174SLPC   C3919734   4.776   1.966   5.657 -0.3651 -0.2854 -0.4711
  174SLPC   H9X19735   4.872   1.985   5.710  1.4151 -1.9911 -2.8799
  174SLPC   H9Y19736   4.730   2.067   5.651  0.8408  0.3594  0.6002
  174SLPC  C31019737   4.806   1.909   5.519  0.6156  0.5496  0.9847
  174SLPC  H10X19738   4.710   1.922   5.464  2.7472  1.9411 -2.7025
  174SLPC  H10Y19739   4.827   1.800   5.523  0.0331  0.2710 -1.5669
  174SLPC  C31119740   4.913   1.987   5.433  0.5250  0.1336  0.0580
  174SLPC  H11X19741   5.006   2.004   5.491  0.5071  2.0849 -0.3853
  174SLPC  H11Y19742   4.875   2.091   5.415 -0.8642 -0.2008  0.8934
  174SLPC  C31219743   4.947   1.922   5.298 -0.0212 -0.1103 -0.5018
  174SLPC  H12X19744   4.852   1.935   5.241  0.1097 -1.8062 -1.1611
  174SLPC  H12Y19745   4.959   1.813   5.317  0.4683 -0.4743 -2.6575
  174SLPC  C31319746   5.075   1.971   5.240 -0.0573 -0.3353 -0.3261
  174SLPC  H13X19747   5.165   1.948   5.300  1.0820 -1.0250 -2.2233
  174SLPC  H13Y19748   5.070   2.081   5.225  2.4243 -0.1186 -0.0283
  174SLPC  C31419749   5.110   1.909   5.106  0.4230  0.3611 -0.6297
  174SLPC  H14X19750   5.049   1.816   5.096  2.1381 -0.8707 -0.0843
  174SLPC  H14Y19751   5.216   1.878   5.100  0.9062  2.0508 -1.3548
  174SLPC  C31519752   5.074   2.001   4.991  0.2651 -0.2757  0.4487
  174SLPC  H15X19753   5.147   2.084   5.002  1.2880 -1.2790  1.5601
  174SLPC  H15Y19754   4.969   2.034   4.998  0.0055 -1.1370  0.7205
  174SLPC  C31619755   5.083   1.942   4.851 -0.8774 -0.2632  0.4191
  174SLPC  H16X19756   5.013   1.857   4.835 -1.6570  0.7682 -2.1451
  174SLPC  H16Y19757   5.187   1.906   4.839 -1.4014 -1.9788  0.6249
  174SLPC  C31719758   5.065   2.048   4.735 -0.4737 -0.7492 -0.6358
  174SLPC  H17X19759   4.973   2.108   4.724 -0.2017 -0.3443 -0.7291
  174SLPC  H17Y19760   5.073   1.994   4.638 -0.8103 -1.2295 -0.4018
  174SLPC  C31819761   5.176   2.162   4.737 -0.3860  0.1723  0.4199
  174SLPC  H18X19762   5.184   2.218   4.641  1.9385 -1.0286 -0.1511
  174SLPC  H18Y19763   5.273   2.117   4.766 -0.0581 -1.0182 -2.2038
  174SLPC  H18Z19764   5.161   2.229   4.824  1.2054 -0.7046  1.4121
  175SLPC     N19765   0.189   3.780   7.083  0.3613  0.3566  0.6972
  175SLPC   C1319766   0.317   3.818   7.155  0.5842 -0.3208 -0.4115
  175SLPC  H13A19767   0.335   3.924   7.144 -0.9181  0.6470  4.2952
  175SLPC  H13B19768   0.316   3.789   7.259 -1.1487 -2.0998 -0.8494
  175SLPC  H13C19769   0.400   3.769   7.108 -0.1329 -0.0241 -2.0460
  175SLPC   C1419770   0.079   3.849   7.154 -0.1266 -0.3589  0.7180
  175SLPC  H14A19771   0.100   3.952   7.177 -1.0638  0.3832 -1.5270
  175SLPC  H14B19772  -0.011   3.860   7.096 -0.4962 -0.8798  1.1750
  175SLPC  H14C19773   0.057   3.803   7.250 -4.2848  1.0872  0.6422
  175SLPC   C1519774   0.170   3.636   7.110 -0.0601  0.2957  0.7200
  175SLPC  H15A19775   0.078   3.604   7.063 -0.2354 -0.8232  1.7904
  175SLPC  H15B19776   0.244   3.580   7.055 -2.0140 -0.8668 -0.8675
  175SLPC  H15C19777   0.177   3.612   7.215 -0.8697 -0.6871  0.5590
  175SLPC   C1219778   0.185   3.805   6.927  0.1762  0.2264  0.1092
  175SLPC  H12A19779   0.108   3.749   6.876  2.0809  0.1219 -2.8915
  175SLPC  H12B19780   0.278   3.765   6.890 -0.1577 -0.2941 -0.1901
  175SLPC   C1119781   0.172   3.957   6.886 -0.4785 -0.7447  0.5738
  175SLPC  H11A19782   0.074   3.995   6.921 -0.7426  0.4651 -1.3410
  175SLPC  H11B19783   0.162   3.960   6.775  0.9125  0.7158  0.4581
  175SLPC     P19784   0.416   4.032   6.872 -0.0559  0.1645 -0.0772
  175SLPC   O1319785   0.505   4.112   6.951 -0.4073 -0.1925 -0.2314
  175SLPC   O1419786   0.459   3.892   6.848  0.1232  0.2485  0.3630
  175SLPC   O1219787   0.276   4.042   6.930  0.0700 -0.3821  0.2900
  175SLPC   O1119788   0.396   4.107   6.730 -0.3990 -0.0950 -0.4794
  175SLPC    C119789   0.367   4.251   6.730 -0.1076  0.2616  0.7127
  175SLPC    HA19790   0.263   4.261   6.770 -0.5067 -1.2360  0.1300
  175SLPC    HB19791   0.441   4.308   6.790  1.5450  1.6973 -2.4552
  175SLPC    C219792   0.380   4.304   6.588  0.0682 -0.0556 -0.2093
  175SLPC    HS19793   0.390   4.413   6.601  0.6842 -0.2455  1.0905
  175SLPC   O2119794   0.276   4.253   6.497 -0.0273 -0.5010 -0.4521
  175SLPC   C2119795   0.200   4.340   6.436  0.2222  0.2770 -0.4308
  175SLPC   O2219796   0.209   4.460   6.447  0.0123  0.1645  0.6172
  175SLPC   C2219797   0.120   4.271   6.318  0.0988 -0.2235  0.0317
  175SLPC   H2R19798   0.038   4.211   6.363  0.9983 -1.4256  0.1030
  175SLPC   H2S19799   0.072   4.344   6.249 -1.3712  0.9408  2.1516
  175SLPC    C319800   0.522   4.262   6.537 -0.2224 -0.2322  0.0115
  175SLPC    HX19801   0.526   4.153   6.514 -1.3772 -0.2925  0.0555
  175SLPC    HY19802   0.587   4.280   6.625 -0.5271 -1.4955  0.5162
  175SLPC   O3119803   0.559   4.333   6.417  0.2802  0.1059  0.0122
  175SLPC   C3119804   0.674   4.401   6.424 -0.4799  0.1073  0.3090
  175SLPC   O3219805   0.750   4.404   6.518  0.1836 -0.7838 -0.0415
  175SLPC   C3219806   0.700   4.467   6.292  0.6903  0.0368 -0.2160
  175SLPC   H2X19807   0.606   4.498   6.242  0.5476 -1.7700 -1.1481
  175SLPC   H2Y19808   0.765   4.391   6.242  0.3956 -0.0769 -0.4280
  175SLPC   C2319809   0.206   4.167   6.238 -0.1833  0.3503  0.4993
  175SLPC   H3R19810   0.136   4.110   6.174 -0.8438  1.8716 -0.1936
  175SLPC   H3S19811   0.249   4.100   6.314 -1.2493 -0.7727  0.1441
  175SLPC   C2419812   0.319   4.236   6.163 -0.1020 -0.1952 -0.0997
  175SLPC   H4R19813   0.367   4.167   6.090 -2.0129 -0.1777 -1.4433
  175SLPC   H4S19814   0.383   4.260   6.251 -0.8221 -1.6447  0.8762
  175SLPC   C2519815   0.275   4.354   6.075  0.6528 -0.6543  0.2886
  175SLPC   H5R19816   0.360   4.406   6.026  0.9799 -0.5123  0.9844
  175SLPC   H5S19817   0.225   4.433   6.134  2.1669 -1.4902  2.8677
  175SLPC   C2619818   0.173   4.318   5.958  0.6744  0.0731  0.0006
  175SLPC   H6R19819   0.140   4.414   5.912 -0.3602  0.0155  0.5909
  175SLPC   H6S19820   0.083   4.276   6.007  2.3950 -2.6530  1.0338
  175SLPC   C2719821   0.213   4.221   5.848 -0.4733  0.5336  1.1198
  175SLPC   H7R19822   0.130   4.201   5.776 -0.9605 -1.2523  2.1334
  175SLPC   H7S19823   0.239   4.124   5.894  0.4128 -0.0458 -0.4977
  175SLPC   C2819824   0.346   4.250   5.769 -0.9278 -0.7176 -0.3884
  175SLPC   H8R19825   0.361   4.183   5.682  0.9034 -0.6612 -0.1589
  175SLPC   H8S19826   0.428   4.221   5.838  0.7432 -2.4937 -2.9688
  175SLPC   C2919827   0.356   4.395   5.721 -0.0709  0.1317 -0.8550
  175SLPC   H9R19828   0.269   4.435   5.666 -0.0045 -1.2203 -1.9858
  175SLPC  C21019829   0.463   4.477   5.743  0.6907 -0.4854 -0.0484
  175SLPC  H10R19830   0.464   4.578   5.700 -1.5931 -0.5848 -0.4661
  175SLPC  C21119831   0.590   4.434   5.822  0.0102 -0.6913  0.1520
  175SLPC  H11R19832   0.628   4.338   5.782  1.5879  0.4621 -1.2851
  175SLPC  H11S19833   0.568   4.429   5.931 -0.0303 -2.2110  0.0894
  175SLPC  C21219834   0.700   4.535   5.799  0.3571 -0.6779  0.7506
  175SLPC  H12R19835   0.679   4.629   5.851  1.5991  0.0396  0.0059
  175SLPC  C21319836   0.800   4.538   5.705  0.0887  0.1019 -0.4888
  175SLPC  H13R19837   0.869   4.623   5.698 -1.8402  1.8081  0.2688
  175SLPC  C21419838   0.843   4.419   5.614 -0.3265 -0.2565 -0.2137
  175SLPC  H14R19839   0.792   4.328   5.650 -0.0950 -1.0486 -1.7885
  175SLPC  H14S19840   0.953   4.401   5.616 -0.0260  1.2616 -1.1001
  175SLPC  C21519841   0.814   4.464   5.468  0.3208  0.8219 -0.6252
  175SLPC  H15R19842   0.843   4.567   5.440 -0.7758  1.4005  0.2918
  175SLPC  H15S19843   0.703   4.468   5.465  0.3550  1.9599 -0.7786
  175SLPC  C21619844   0.869   4.369   5.363  0.1253  0.1268  0.0635
  175SLPC  H16R19845   0.841   4.267   5.398 -0.1449  0.3565  0.5382
  175SLPC  H16S19846   0.979   4.374   5.346  0.0954  1.5971  0.1191
  175SLPC  C21719847   0.813   4.389   5.221  0.6472 -0.0116 -0.0899
  175SLPC  H17R19848   0.737   4.469   5.217 -1.6060 -1.9995  0.7564
  175SLPC  H17S19849   0.761   4.298   5.184 -1.7468  0.3470  2.1828
  175SLPC  C21819850   0.926   4.430   5.121 -0.3743  0.0027 -0.0264
  175SLPC  H18R19851   0.975   4.528   5.139 -2.0698  0.9802 -0.5071
  175SLPC  H18S19852   0.881   4.420   5.020 -0.1355 -0.6889 -0.0650
  175SLPC  H18T19853   0.997   4.346   5.135  0.4360  1.0121  2.3932
  175SLPC   C3319854   0.767   4.607   6.315 -0.0559 -0.7464  0.7603
  175SLPC   H3X19855   0.870   4.581   6.345 -0.1243 -2.7963 -0.5947
  175SLPC   H3Y19856   0.721   4.676   6.389 -0.9327  0.0865 -0.5141
  175SLPC   C3419857   0.809   4.680   6.189  0.9555 -0.5938  0.7104
  175SLPC   H4X19858   0.721   4.716   6.134  1.8157 -0.8496 -0.8922
  175SLPC   H4Y19859   0.861   4.613   6.117 -0.8043  1.0997 -2.2913
  175SLPC   C3519860   0.893   4.806   6.211  0.4440  0.2606 -0.6206
  175SLPC   H5X19861   0.983   4.776   6.269  0.3277 -1.2623 -1.2010
  175SLPC   H5Y19862   0.832   4.874   6.274  0.0870  0.1410 -0.8341
  175SLPC   C3619863   0.937   4.877   6.088  0.0618  0.2686 -0.5063
  175SLPC   H6X19864   1.014   4.821   6.030 -0.0294 -1.0450  0.5814
  175SLPC   H6Y19865   0.995   4.967   6.119  0.6033 -0.8179  1.8981
  175SLPC   C3719866   0.825   4.918   5.991 -0.4406  0.4190 -0.3461
  175SLPC   H7X19867   0.756   4.988   6.041  0.0484 -0.5428  1.7870
  175SLPC   H7Y19868   0.765   4.828   5.961 -0.4645  0.1727  0.4218
  175SLPC   C3819869   0.873   4.980   5.858  0.1541  0.3144 -0.0615
  175SLPC   H8X19870   0.782   5.003   5.797  0.0537 -2.5007 -1.1355
  175SLPC   H8Y19871   0.927   4.903   5.800  0.0983 -1.2155  1.8243
  175SLPC   C3919872   0.947   5.108   5.889 -0.6139 -0.1963  0.4639
  175SLPC   H9X19873   1.044   5.099   5.942  0.0482 -1.2006 -0.8252
  175SLPC   H9Y19874   0.888   5.176   5.953  0.0078  1.2834 -0.4861
  175SLPC  C31019875   0.986   5.187   5.761  0.8796 -0.0803  0.0768
  175SLPC  H10X19876   0.892   5.231   5.723 -0.9866 -2.2255  1.8819
  175SLPC  H10Y19877   1.029   5.121   5.682  0.9372  3.0562 -2.7152
  175SLPC  C31119878   1.089   5.295   5.785 -0.6401 -0.5772  0.4475
  175SLPC  H11X19879   1.164   5.264   5.861  0.0685 -1.6644 -0.6635
  175SLPC  H11Y19880   1.021   5.377   5.817  0.8146  0.8624 -0.0223
  175SLPC  C31219881   1.161   5.347   5.654  0.0155  0.0417  0.2145
  175SLPC  H12X19882   1.206   5.255   5.609  0.6708 -0.9610  2.7493
  175SLPC  H12Y19883   1.247   5.412   5.681  0.4807 -1.3859  2.3816
  175SLPC  C31319884   1.080   5.417   5.550  0.2516 -0.1492  0.7678
  175SLPC  H13X19885   1.043   5.515   5.587  1.2036  0.2441  0.7014
  175SLPC  H13Y19886   0.985   5.365   5.525  0.6979 -0.6210  0.0190
  175SLPC  C31419887   1.165   5.424   5.420  0.1016  0.2578 -0.1736
  175SLPC  H14X19888   1.188   5.323   5.379  0.3932 -1.1855  3.2265
  175SLPC  H14Y19889   1.262   5.464   5.456 -0.0844  1.3072 -0.7936
  175SLPC  C31519890   1.109   5.525   5.317 -0.3340  0.1549 -0.0788
  175SLPC  H15X19891   1.002   5.494   5.321 -1.0001  2.1368 -1.1099
  175SLPC  H15Y19892   1.156   5.496   5.221  2.6007 -1.0026  1.5759
  175SLPC  C31619893   1.145   5.678   5.357 -0.3953  0.5288  0.0907
  175SLPC  H16X19894   1.255   5.687   5.339  0.0906 -0.2806  2.3592
  175SLPC  H16Y19895   1.120   5.682   5.465  0.3048  0.3438  0.2643
  175SLPC  C31719896   1.063   5.780   5.277 -0.1686  0.2760 -0.2728
  175SLPC  H17X19897   1.075   5.779   5.167 -2.1206 -1.0129 -0.5349
  175SLPC  H17Y19898   1.091   5.883   5.309  2.6075 -1.0493  1.9966
  175SLPC  C31819899   0.912   5.772   5.306  1.1728 -1.0760 -0.7050
  175SLPC  H18X19900   0.868   5.677   5.269 -0.5914  0.1314 -1.9319
  175SLPC  H18Y19901   0.865   5.854   5.246  1.5429  1.8936  2.7006
  175SLPC  H18Z19902   0.878   5.785   5.411 -1.0520 -1.0613 -1.3668
  176SLPC     N19903   1.118   2.506   6.990 -0.0465 -0.6309 -0.2854
  176SLPC   C1319904   1.205   2.560   6.890  0.3313 -1.3033 -0.5853
  176SLPC  H13A19905   1.195   2.494   6.804 -0.9924 -1.0473 -0.6423
  176SLPC  H13B19906   1.171   2.653   6.847  1.8143  0.2762  1.4421
  176SLPC  H13C19907   1.306   2.571   6.928  0.5323  0.5422 -1.5230
  176SLPC   C1419908   1.120   2.594   7.110 -0.3279  0.0512  0.0157
  176SLPC  H14A19909   1.064   2.684   7.089  2.8713  2.5507  1.3764
  176SLPC  H14B19910   1.070   2.555   7.197  2.2098  0.4027  1.7459
  176SLPC  H14C19911   1.218   2.630   7.138 -1.2382  2.8696 -0.0961
  176SLPC   C1519912   1.179   2.375   7.036  0.1037 -0.0420  0.6429
  176SLPC  H15A19913   1.155   2.302   6.960 -3.0683  0.0676  1.3871
  176SLPC  H15B19914   1.285   2.384   7.055 -0.0697 -0.9259  2.2529
  176SLPC  H15C19915   1.123   2.338   7.121 -0.5769  0.3809  0.3886
  176SLPC   C1219916   0.977   2.488   6.943 -0.2212 -0.2049  0.2008
  176SLPC  H12A19917   0.924   2.440   7.023  2.3401  1.3504  3.0360
  176SLPC  H12B19918   0.962   2.432   6.852  0.5617 -0.4389  0.2106
  176SLPC   C1119919   0.894   2.618   6.912  0.4269 -0.5987  0.3909
  176SLPC  H11A19920   0.899   2.681   7.003 -0.7779 -0.6968  0.5418
  176SLPC  H11B19921   0.786   2.595   6.905  0.4267 -0.7635  0.9275
  176SLPC     P19922   0.898   2.825   6.754 -0.3465  0.1338 -0.0051
  176SLPC   O1319923   0.872   2.896   6.880 -0.3269  0.0501 -0.0167
  176SLPC   O1419924   1.003   2.883   6.670  0.5572  0.5672  0.2379
  176SLPC   O1219925   0.951   2.677   6.788 -0.6926  0.2416  0.3431
  176SLPC   O1119926   0.771   2.806   6.668 -0.0398  0.1278  0.0865
  176SLPC    C119927   0.739   2.682   6.600  0.1254 -0.4971 -0.1741
  176SLPC    HA19928   0.728   2.590   6.662  1.1500  1.6405  3.5348
  176SLPC    HB19929   0.633   2.693   6.569 -0.4374 -1.1757  1.3905
  176SLPC    C219930   0.801   2.654   6.464 -0.2923  0.5218  0.5894
  176SLPC    HS19931   0.768   2.556   6.424 -0.0559  0.7437 -0.1593
  176SLPC   O2119932   0.942   2.670   6.461  0.2482 -0.3383 -0.8537
  176SLPC   C2119933   1.016   2.571   6.507  0.4542  0.5800 -0.4832
  176SLPC   O2219934   0.979   2.469   6.563  0.2102  0.3294 -0.3634
  176SLPC   C2219935   1.162   2.622   6.514  0.8752  0.6862 -0.0494
  176SLPC   H2R19936   1.167   2.731   6.493  0.4433  1.0500  1.5968
  176SLPC   H2S19937   1.206   2.615   6.615 -0.1633  2.4785  0.5727
  176SLPC    C319938   0.754   2.748   6.362  0.1918  0.1235  0.4759
  176SLPC    HX19939   0.789   2.852   6.379 -1.1221  0.6262  0.2017
  176SLPC    HY19940   0.643   2.752   6.357  0.2266 -0.1022 -1.4443
  176SLPC   O3119941   0.802   2.702   6.229 -0.7463 -0.0312 -0.1598
  176SLPC   C3119942   0.870   2.791   6.152  0.5050 -0.1939 -0.3991
  176SLPC   O3219943   0.878   2.912   6.172 -0.5630  0.0004  0.4627
  176SLPC   C3219944   0.936   2.707   6.040  0.5898 -0.2692  0.0175
  176SLPC   H2X19945   0.856   2.647   5.990  0.3309 -2.4933  2.8205
  176SLPC   H2Y19946   0.994   2.630   6.095  0.4133 -1.6145 -1.5695
  176SLPC   C2319947   1.250   2.537   6.419  0.9542 -0.2431 -0.2918
  176SLPC   H3R19948   1.232   2.427   6.428  1.4174 -0.4392 -1.6056
  176SLPC   H3S19949   1.355   2.552   6.450  0.5080 -2.3007  2.6973
  176SLPC   C2419950   1.232   2.575   6.266 -0.5850  0.4259 -0.0885
  176SLPC   H4R19951   1.268   2.680   6.256 -0.8670  0.4717 -0.6826
  176SLPC   H4S19952   1.122   2.572   6.249 -0.7795  2.2882  0.5930
  176SLPC   C2519953   1.306   2.488   6.168  0.3371 -0.0803 -0.5784
  176SLPC   H5R19954   1.287   2.381   6.187  0.3133  0.3977  2.6387
  176SLPC   H5S19955   1.414   2.505   6.187  0.1852 -1.1657  1.4363
  176SLPC   C2619956   1.270   2.520   6.023  0.3842  0.1702 -0.9356
  176SLPC   H6R19957   1.267   2.629   6.003  0.3061  0.1225 -1.1812
  176SLPC   H6S19958   1.164   2.494   6.002 -0.0515  1.9336 -1.0832
  176SLPC   C2719959   1.347   2.434   5.927 -0.2747  0.4616 -0.6529
  176SLPC   H7R19960   1.316   2.327   5.936  0.8652  0.1366 -0.4327
  176SLPC   H7S19961   1.453   2.448   5.953 -0.7188  0.9087  1.0161
  176SLPC   C2819962   1.339   2.476   5.784  0.3166 -0.1375  0.6552
  176SLPC   H8R19963   1.416   2.417   5.730  0.5210 -0.4790  1.3114
  176SLPC   H8S19964   1.356   2.585   5.769  1.5720 -0.5759 -1.5023
  176SLPC   C2919965   1.203   2.455   5.718 -0.6192 -0.0606  0.3340
  176SLPC   H9R19966   1.114   2.473   5.780 -1.9568  1.3678 -1.8822
  176SLPC  C21019967   1.178   2.424   5.590  0.1863  0.4522  0.8735
  176SLPC  H10R19968   1.071   2.415   5.566 -0.1878  0.1918  2.4887
  176SLPC  C21119969   1.280   2.400   5.481 -0.7620  0.4092  0.0490
  176SLPC  H11R19970   1.237   2.347   5.393  3.0019 -0.7402 -1.3140
  176SLPC  H11S19971   1.353   2.324   5.518  0.1429 -0.0137 -2.3981
  176SLPC  C21219972   1.363   2.519   5.429 -0.4003 -0.1264  0.1374
  176SLPC  H12R19973   1.310   2.614   5.417  0.6440  1.0266  3.4503
  176SLPC  C21319974   1.491   2.512   5.378  0.5152 -0.0338  0.3397
  176SLPC  H13R19975   1.532   2.605   5.335 -2.4688  1.6583  0.8454
  176SLPC  C21419976   1.573   2.389   5.380 -0.2406  0.1653  0.1611
  176SLPC  H14R19977   1.504   2.303   5.394 -1.2824  1.1960  1.8416
  176SLPC  H14S19978   1.659   2.391   5.451 -1.2723  1.4531  1.4379
  176SLPC  C21519979   1.648   2.354   5.252 -0.3450  0.2043  0.2578
  176SLPC  H15R19980   1.566   2.339   5.179  0.4775 -4.2348  0.0141
  176SLPC  H15S19981   1.702   2.259   5.267 -0.6297 -0.0225 -0.1557
  176SLPC  C21619982   1.750   2.465   5.214  0.3032 -0.0289 -0.0508
  176SLPC  H16R19983   1.824   2.498   5.290 -0.3792  3.9472 -0.8841
  176SLPC  H16S19984   1.685   2.555   5.213 -3.8003 -2.6573  2.0478
  176SLPC  C21719985   1.822   2.436   5.083 -0.1554  0.0746 -0.0637
  176SLPC  H17R19986   1.741   2.411   5.011 -1.3752  1.3235  0.8008
  176SLPC  H17S19987   1.892   2.352   5.103  2.0588  2.0994  1.1984
  176SLPC  C21819988   1.892   2.557   5.035 -0.7208  0.0079 -0.7306
  176SLPC  H18R19989   1.818   2.629   4.995  0.2917  0.8306 -1.1751
  176SLPC  H18S19990   1.972   2.536   4.961  1.7170 -0.0955  1.7810
  176SLPC  H18T19991   1.958   2.599   5.114  1.0976 -2.1778 -1.0001
  176SLPC   C3319992   1.028   2.780   5.946 -0.0341  0.1275 -0.0293
  176SLPC   H3X19993   1.098   2.704   5.905  1.8449  0.1613  2.8705
  176SLPC   H3Y19994   1.090   2.852   6.003 -0.5144  1.4440 -1.1152
  176SLPC   C3419995   0.957   2.864   5.835  0.3395  1.1356 -0.3380
  176SLPC   H4X19996   1.028   2.909   5.762  0.6685  1.1224 -0.0284
  176SLPC   H4Y19997   0.914   2.949   5.891 -2.4878 -1.4935  1.8349
  176SLPC   C3519998   0.857   2.787   5.741 -0.8963  0.2426  0.6205
  176SLPC   H5X19999   0.810   2.859   5.671 -1.6271 -0.3658  0.4807
  176SLPC   H5Y20000   0.779   2.739   5.803  1.3765 -1.6310  2.2121
  176SLPC   C3620001   0.930   2.684   5.652  0.1393 -0.1143 -0.1167
  176SLPC   H6X20002   0.963   2.603   5.720  1.3144  0.2302 -0.2592
  176SLPC   H6Y20003   1.022   2.727   5.607 -1.0172  4.0800  1.0983
  176SLPC   C3720004   0.842   2.627   5.535  0.8979 -0.1356 -0.2266
  176SLPC   H7X20005   0.738   2.632   5.574  0.9895 -0.7574  0.1138
  176SLPC   H7Y20006   0.865   2.526   5.496 -1.6517 -0.1347 -2.0088
  176SLPC   C3820007   0.841   2.719   5.414 -0.5570 -0.6255 -0.3678
  176SLPC   H8X20008   0.947   2.742   5.391  0.1648 -1.5600  1.8176
  176SLPC   H8Y20009   0.796   2.817   5.440 -0.5969 -1.4963  3.3630
  176SLPC   C3920010   0.764   2.658   5.297 -0.3720 -0.1083  0.3611
  176SLPC   H9X20011   0.661   2.631   5.327 -0.1948 -0.5624  0.5696
  176SLPC   H9Y20012   0.810   2.561   5.268  0.0339  0.2877 -0.3608
  176SLPC  C31020013   0.759   2.751   5.170 -0.0862  0.2934 -0.2540
  176SLPC  H10X20014   0.869   2.760   5.153  0.0150 -0.4760 -0.0764
  176SLPC  H10Y20015   0.716   2.849   5.197  0.2516  0.5478 -0.6276
  176SLPC  C31120016   0.680   2.685   5.052  0.5426 -0.5828 -0.0282
  176SLPC  H11X20017   0.580   2.648   5.084  0.7169 -2.0854 -1.1319
  176SLPC  H11Y20018   0.728   2.593   5.011  1.5619  0.6447 -1.6918
  176SLPC  C31220019   0.660   2.776   4.931 -0.2562 -0.3285  0.2373
  176SLPC  H12X20020   0.586   2.858   4.942  0.7704  0.6867 -0.2145
  176SLPC  H12Y20021   0.619   2.714   4.849  2.6090 -1.7412 -0.2444
  176SLPC  C31320022   0.792   2.839   4.881 -0.3896  0.2641 -0.7911
  176SLPC  H13X20023   0.863   2.755   4.862 -0.4849  0.3438 -1.5437
  176SLPC  H13Y20024   0.841   2.909   4.952 -1.7411  2.1950 -1.6878
  176SLPC  C31420025   0.785   2.910   4.744 -0.7938 -0.4625 -0.3388
  176SLPC  H14X20026   0.733   2.831   4.686 -1.3058 -0.8602  0.6234
  176SLPC  H14Y20027   0.888   2.921   4.705 -0.7952 -2.7762 -1.1045
  176SLPC  C31520028   0.701   3.038   4.735  0.2145 -0.0125 -0.3904
  176SLPC  H15X20029   0.764   3.116   4.784  0.4036  1.4003 -2.7324
  176SLPC  H15Y20030   0.603   3.020   4.786 -0.9728 -0.8875 -2.8416
  176SLPC  C31620031   0.669   3.080   4.587  0.0403  0.0834  0.7145
  176SLPC  H16X20032   0.633   2.995   4.526  1.0850 -0.7398  1.2113
  176SLPC  H16Y20033   0.773   3.100   4.555  0.3492  1.8280  2.6101
  176SLPC  C31720034   0.594   3.212   4.564 -0.4754  0.9215  0.5149
  176SLPC  H17X20035   0.625   3.246   4.463  1.0429 -3.7264 -0.8548
  176SLPC  H17Y20036   0.629   3.296   4.627  0.7040  1.2323 -0.4962
  176SLPC  C31820037   0.443   3.194   4.580 -0.8244  0.1070  1.0345
  176SLPC  H18X20038   0.411   3.111   4.514  1.6302  1.0333 -1.5455
  176SLPC  H18Y20039   0.379   3.280   4.551 -2.8576 -1.4074  0.7937
  176SLPC  H18Z20040   0.416   3.157   4.682 -0.4092 -2.7397  0.2035
  177SLPC     N20041   2.738   3.411   7.093  0.0612 -0.8319  0.3489
  177SLPC   C1320042   2.864   3.498   7.095 -0.1020 -0.2990  0.5228
  177SLPC  H13A20043   2.878   3.536   6.995  1.6048 -1.6551  0.2051
  177SLPC  H13B20044   2.857   3.580   7.165 -2.6911  2.5061 -2.6190
  177SLPC  H13C20045   2.954   3.447   7.125 -0.0197 -0.0257  0.7458
  177SLPC   C1420046   2.707   3.362   7.232 -0.0587 -0.0254  0.2140
  177SLPC  H14A20047   2.708   3.444   7.302 -0.9850 -0.4956  0.8010
  177SLPC  H14B20048   2.617   3.304   7.249  0.8842 -1.1847  1.4677
  177SLPC  H14C20049   2.786   3.293   7.258 -0.4735 -0.4543  0.3424
  177SLPC   C1520050   2.756   3.302   6.998  0.3297  0.3881 -0.3281
  177SLPC  H15A20051   2.666   3.242   6.994 -0.9933  1.9193  2.8064
  177SLPC  H15B20052   2.757   3.340   6.897  0.4090  2.9198  0.5412
  177SLPC  H15C20053   2.836   3.233   7.021 -0.4014 -0.5718 -0.5929
  177SLPC   C1220054   2.622   3.507   7.050  0.1138  0.3919  0.0030
  177SLPC  H12A20055   2.657   3.565   6.966  1.3176  0.1479  0.3115
  177SLPC  H12B20056   2.603   3.580   7.128 -0.9805  0.8992 -0.7249
  177SLPC   C1120057   2.484   3.440   7.031 -0.1555  0.0544  0.6563
  177SLPC  H11A20058   2.496   3.376   6.941 -2.7076 -1.2898  1.1706
  177SLPC  H11B20059   2.421   3.529   7.007  1.2371  0.0540 -4.0377
  177SLPC     P20060   2.375   3.226   7.124 -0.4102  0.1989 -0.2549
  177SLPC   O1320061   2.483   3.130   7.153 -0.5048 -0.2385  0.0357
  177SLPC   O1420062   2.256   3.223   7.205  0.2332 -0.0839 -0.1879
  177SLPC   O1220063   2.436   3.367   7.141  0.0282  0.2335  0.2534
  177SLPC   O1120064   2.339   3.218   6.968 -0.2137 -0.2739 -0.0337
  177SLPC    C120065   2.245   3.317   6.920 -0.0063 -0.1111 -0.2788
  177SLPC    HA20066   2.147   3.303   6.971  0.1308 -1.2262 -0.2991
  177SLPC    HB20067   2.277   3.423   6.913 -1.0768  0.4354  2.2173
  177SLPC    C220068   2.222   3.289   6.770  0.1501 -0.2304  0.5975
  177SLPC    HS20069   2.195   3.185   6.743 -0.7876  0.4581 -1.3018
  177SLPC   O2120070   2.343   3.345   6.705 -0.5911 -0.6288 -0.1279
  177SLPC   C2120071   2.383   3.293   6.587 -0.3979 -0.3356 -0.2829
  177SLPC   O2220072   2.347   3.187   6.546  0.2995 -0.0570 -0.0963
  177SLPC   C2220073   2.500   3.375   6.545 -0.3851  0.7271 -0.2218
  177SLPC   H2R20074   2.468   3.481   6.552 -0.2091  0.6734  2.1521
  177SLPC   H2S20075   2.580   3.359   6.620 -0.5776  1.3962  0.1358
  177SLPC    C320076   2.108   3.379   6.715 -0.0960  0.0320 -0.5587
  177SLPC    HX20077   2.136   3.478   6.758 -1.0902 -0.3455  1.0473
  177SLPC    HY20078   2.013   3.351   6.765 -1.3979  3.7435 -0.6339
  177SLPC   O3120079   2.099   3.391   6.573 -0.3003  0.3724  0.2968
  177SLPC   C3120080   2.021   3.300   6.512 -0.6952 -0.2798  0.6150
  177SLPC   O3220081   1.968   3.207   6.565 -0.4120 -0.4294  0.2124
  177SLPC   C3220082   2.029   3.327   6.365  1.0547  0.2356  0.6436
  177SLPC   H2X20083   2.121   3.275   6.332  0.6699  0.7989 -1.4874
  177SLPC   H2Y20084   2.040   3.436   6.349 -1.3280  0.4773  0.2459
  177SLPC   C2320085   2.565   3.338   6.408  0.2485 -0.0116 -0.5318
  177SLPC   H3R20086   2.554   3.228   6.400 -2.0864  0.1558 -0.3092
  177SLPC   H3S20087   2.670   3.372   6.415  0.3936 -0.7760  2.0093
  177SLPC   C2420088   2.496   3.404   6.285 -0.2688 -0.0759  0.1612
  177SLPC   H4R20089   2.527   3.510   6.276 -1.4150  0.3420  1.0062
  177SLPC   H4S20090   2.386   3.398   6.295 -0.2112  0.5711  1.3569
  177SLPC   C2520091   2.534   3.340   6.143  0.4817 -0.2985 -0.4781
  177SLPC   H5R20092   2.507   3.233   6.155 -1.6662  0.3461  0.8675
  177SLPC   H5S20093   2.644   3.338   6.128  0.2462  0.4449 -2.8304
  177SLPC   C2620094   2.463   3.396   6.023  0.5611 -0.0083  0.0689
  177SLPC   H6R20095   2.496   3.502   6.021  1.1383 -0.1791 -2.3633
  177SLPC   H6S20096   2.354   3.385   6.043  0.6442 -0.7438  0.1346
  177SLPC   C2720097   2.503   3.328   5.887  0.2097  0.0019 -0.1186
  177SLPC   H7R20098   2.483   3.220   5.900  1.1198 -0.1882 -0.1873
  177SLPC   H7S20099   2.613   3.333   5.900  0.1951 -0.4231  0.1771
  177SLPC   C2820100   2.441   3.399   5.764  0.3068  0.2839 -0.2564
  177SLPC   H8R20101   2.516   3.411   5.683  0.2147  1.6200 -0.1710
  177SLPC   H8S20102   2.415   3.502   5.796 -0.0085  0.0011  0.4109
  177SLPC   C2920103   2.323   3.314   5.724  0.5273 -0.3758 -0.0757
  177SLPC   H9R20104   2.286   3.263   5.814 -1.5809  1.0842 -0.0317
  177SLPC  C21020105   2.258   3.322   5.606  0.3812  0.9020  0.2008
  177SLPC  H10R20106   2.164   3.267   5.593  0.9207  0.4258 -2.0181
  177SLPC  C21120107   2.299   3.401   5.485  0.2862  0.2914 -0.1800
  177SLPC  H11R20108   2.389   3.465   5.501  0.8681 -0.6842  0.6052
  177SLPC  H11S20109   2.219   3.474   5.460 -0.5554 -1.0192 -1.4646
  177SLPC  C21220110   2.328   3.321   5.367  0.2360  0.4922  0.5851
  177SLPC  H12R20111   2.322   3.214   5.393  0.9667  0.2911 -0.0365
  177SLPC  C21320112   2.368   3.349   5.243 -0.1522 -0.3444 -0.0877
  177SLPC  H13R20113   2.379   3.266   5.171  0.9204 -0.1694 -0.1472
  177SLPC  C21420114   2.374   3.495   5.187  0.0086 -0.1085  0.5103
  177SLPC  H14R20115   2.473   3.525   5.145 -0.6869 -1.2561 -2.1182
  177SLPC  H14S20116   2.349   3.566   5.268 -0.5700  2.4776 -1.7856
  177SLPC  C21520117   2.267   3.517   5.081  0.3077  0.5661 -0.0925
  177SLPC  H15R20118   2.250   3.622   5.051  0.7319  0.4119 -0.8861
  177SLPC  H15S20119   2.172   3.476   5.123 -0.0794  0.5775 -0.9443
  177SLPC  C21620120   2.295   3.431   4.957 -0.6997  0.4655  0.5897
  177SLPC  H16R20121   2.299   3.325   4.992 -0.6572  0.9449  2.1343
  177SLPC  H16S20122   2.394   3.454   4.912 -0.4322 -0.3683  0.7300
  177SLPC  C21720123   2.193   3.449   4.845 -0.3351  0.6771  0.7134
  177SLPC  H17R20124   2.191   3.557   4.817 -0.7655  0.3663 -0.5448
  177SLPC  H17S20125   2.091   3.419   4.876 -1.0841 -1.2871 -3.0392
  177SLPC  C21820126   2.214   3.374   4.712  0.3559 -0.5215  0.9944
  177SLPC  H18R20127   2.142   3.406   4.634 -2.0674 -0.8376  2.9636
  177SLPC  H18S20128   2.188   3.267   4.725 -0.3751 -0.3325  1.1274
  177SLPC  H18T20129   2.319   3.383   4.678  0.8868 -2.4153  2.0271
  177SLPC   C3320130   1.921   3.275   6.279  0.1892  0.1825 -0.7766
  177SLPC   H3X20131   1.821   3.310   6.314  1.2701  0.8991  1.8348
  177SLPC   H3Y20132   1.922   3.164   6.288 -1.9103  0.2516  1.6258
  177SLPC   C3420133   1.949   3.312   6.133 -0.7668 -0.1771  0.1217
  177SLPC   H4X20134   2.052   3.284   6.104 -1.0653 -2.1692  0.8651
  177SLPC   H4Y20135   1.939   3.422   6.119  0.7153 -0.0740 -0.2289
  177SLPC   C3520136   1.854   3.223   6.048 -0.3419  0.1975 -0.1725
  177SLPC   H5X20137   1.756   3.239   6.096  0.3712 -0.9274  1.7461
  177SLPC   H5Y20138   1.880   3.116   6.057 -2.2088 -0.1017  2.7444
  177SLPC   C3620139   1.859   3.261   5.898 -0.3109 -0.4481  0.0735
  177SLPC   H6X20140   1.961   3.230   5.867  0.5397 -0.6981  2.8086
  177SLPC   H6Y20141   1.841   3.370   5.886 -0.3423 -0.2582  1.5718
  177SLPC   C3720142   1.751   3.191   5.823  0.0228 -0.2252 -1.0651
  177SLPC   H7X20143   1.660   3.223   5.878  0.0506 -3.0535  0.8568
  177SLPC   H7Y20144   1.763   3.084   5.850 -2.0838 -0.6440 -1.5862
  177SLPC   C3820145   1.747   3.225   5.668 -0.1927 -0.0658 -0.8143
  177SLPC   H8X20146   1.724   3.333   5.655 -0.7031 -0.4775 -4.1465
  177SLPC   H8Y20147   1.661   3.171   5.624  0.3504 -1.8778  0.2483
  177SLPC   C3920148   1.868   3.191   5.587  0.2815  0.4604 -0.1237
  177SLPC   H9X20149   1.881   3.083   5.564  0.9821  0.6786 -0.8006
  177SLPC   H9Y20150   1.962   3.210   5.642  1.1656 -1.0290 -1.0234
  177SLPC  C31020151   1.872   3.250   5.445  0.2630  0.7914 -0.1884
  177SLPC  H10X20152   1.776   3.232   5.391  0.5125 -0.4451 -0.2500
  177SLPC  H10Y20153   1.946   3.192   5.386 -0.8372 -0.9870  0.1161
  177SLPC  C31120154   1.918   3.399   5.455  0.0194 -0.2966 -0.1295
  177SLPC  H11X20155   1.987   3.417   5.540  0.8412  0.8169 -1.0046
  177SLPC  H11Y20156   1.827   3.453   5.489  0.7444  0.8142  0.0770
  177SLPC  C31220157   1.977   3.454   5.326  0.1910  0.4160  0.6481
  177SLPC  H12X20158   2.055   3.376   5.307 -3.0256 -2.3748 -2.6037
  177SLPC  H12Y20159   2.029   3.547   5.357  0.5293 -0.5961  3.4817
  177SLPC  C31320160   1.885   3.480   5.203 -0.1819  0.1353  0.0865
  177SLPC  H13X20161   1.860   3.381   5.161 -3.4020  0.4322  1.0435
  177SLPC  H13Y20162   1.937   3.537   5.123 -0.1206  1.2314  0.8850
  177SLPC  C31420163   1.753   3.557   5.233  0.9488  0.0649 -0.6319
  177SLPC  H14X20164   1.730   3.628   5.151 -2.0852  0.6817  0.6523
  177SLPC  H14Y20165   1.778   3.617   5.323  1.9539 -2.1541  0.6612
  177SLPC  C31520166   1.634   3.474   5.267 -1.2402  0.1410  0.9575
  177SLPC  H15X20167   1.653   3.409   5.355 -0.1956 -2.0519 -0.7777
  177SLPC  H15Y20168   1.613   3.407   5.181  0.6116  1.7601 -0.8920
  177SLPC  C31620169   1.512   3.555   5.308  0.4687 -0.3844  0.0237
  177SLPC  H16X20170   1.479   3.635   5.239 -0.4308 -0.5344  0.2783
  177SLPC  H16Y20171   1.546   3.600   5.403 -1.1881 -1.4399  1.1632
  177SLPC  C31720172   1.386   3.474   5.332  0.2976 -0.5949 -0.7904
  177SLPC  H17X20173   1.408   3.386   5.396  1.0518  0.6778  0.7857
  177SLPC  H17Y20174   1.346   3.434   5.237  1.5217 -3.3767 -0.2273
  177SLPC  C31820175   1.277   3.558   5.402  0.3192 -0.2463  0.0721
  177SLPC  H18X20176   1.178   3.510   5.390  0.2559 -0.4175  1.1623
  177SLPC  H18Y20177   1.264   3.654   5.348 -3.4659 -0.9083 -0.4974
  177SLPC  H18Z20178   1.310   3.580   5.506  1.8307 -0.1022 -0.4155
  178SLPC     N20179   0.413   0.152   7.248 -0.6631 -0.5051  0.6544
  178SLPC   C1320180   0.476   0.032   7.193  0.3388 -0.0051 -0.0201
  178SLPC  H13A20181   0.523   0.051   7.097 -1.1291 -0.5399 -0.8652
  178SLPC  H13B20182   0.552  -0.004   7.261  2.3276  1.2590 -1.4284
  178SLPC  H13C20183   0.404  -0.045   7.172 -1.2505  1.8389 -1.6763
  178SLPC   C1420184   0.500   0.285   7.233 -0.0526  0.6779 -0.1759
  178SLPC  H14A20185   0.535   0.297   7.132  1.6920  1.7235  0.4930
  178SLPC  H14B20186   0.436   0.370   7.252 -0.3096  1.0008 -2.2742
  178SLPC  H14C20187   0.582   0.294   7.303 -0.2852  1.6580 -0.0156
  178SLPC   C1520188   0.380   0.123   7.396 -0.1356 -0.6245 -0.0851
  178SLPC  H15A20189   0.468   0.156   7.449 -0.3099 -0.8730  0.3585
  178SLPC  H15B20190   0.302   0.190   7.429 -1.2726 -0.7574 -2.3245
  178SLPC  H15C20191   0.369   0.017   7.412  0.2629 -0.4123  1.8921
  178SLPC   C1220192   0.282   0.186   7.167 -0.6354  0.4611  0.5814
  178SLPC  H12A20193   0.222   0.098   7.153 -1.0222  0.6571  0.9897
  178SLPC  H12B20194   0.308   0.220   7.068  0.0032 -0.3169  0.4751
  178SLPC   C1120195   0.182   0.293   7.229 -0.0570 -0.1707 -0.5202
  178SLPC  H11A20196   0.117   0.333   7.148 -1.2380  1.7696  1.2697
  178SLPC  H11B20197   0.247   0.381   7.250 -0.6021 -0.0091  0.5502
  178SLPC     P20198  -0.008   0.141   7.338 -0.6207  0.1016 -0.3523
  178SLPC   O1320199  -0.043   0.089   7.473 -0.1506  0.2979 -0.0623
  178SLPC   O1420200  -0.122   0.204   7.271 -0.4172 -0.4902  0.1635
  178SLPC   O1220201   0.115   0.248   7.345 -0.2540 -0.0033 -0.1793
  178SLPC   O1120202   0.043   0.028   7.248 -0.4108  0.0431  0.3469
  178SLPC    C120203  -0.015  -0.106   7.242  0.6268 -0.1021 -0.5158
  178SLPC    HA20204   0.043  -0.189   7.288  0.4151  0.4565  0.7846
  178SLPC    HB20205  -0.115  -0.106   7.290  0.2562  0.8441 -1.2524
  178SLPC    C220206  -0.035  -0.161   7.102  0.3396  0.1876 -0.1241
  178SLPC    HS20207   0.064  -0.170   7.052  1.5270  1.6769  1.8080
  178SLPC   O2120208  -0.129  -0.079   7.035 -0.4526  0.6124  0.4252
  178SLPC   C2120209  -0.088   0.035   6.991 -0.0735 -0.4826 -0.7070
  178SLPC   O2220210   0.031   0.073   6.982  0.3523  0.3120 -0.3627
  178SLPC   C2220211  -0.199   0.132   6.958  0.2758  0.2599 -0.0419
  178SLPC   H2R20212  -0.293   0.073   6.966  0.2984  0.2247 -0.0371
  178SLPC   H2S20213  -0.210   0.201   7.044 -0.4818 -0.0761  0.1445
  178SLPC    C320214  -0.083  -0.309   7.111  0.4654 -0.0890  0.4193
  178SLPC    HX20215  -0.162  -0.317   7.189 -1.0569  0.1284 -1.0429
  178SLPC    HY20216  -0.004  -0.374   7.153 -0.4552 -1.7315 -0.3224
  178SLPC   O3120217  -0.117  -0.363   6.981 -0.5617 -0.4884 -0.7663
  178SLPC   C3120218  -0.233  -0.336   6.934 -0.2496 -0.5304 -0.3336
  178SLPC   O3220219  -0.324  -0.276   6.992  0.0480 -0.0280 -0.5176
  178SLPC   C3220220  -0.232  -0.383   6.793 -0.0017 -0.6268 -0.0707
  178SLPC   H2X20221  -0.151  -0.459   6.779 -0.9723 -2.2569  2.5075
  178SLPC   H2Y20222  -0.216  -0.306   6.714  1.0346  0.8043  1.4883
  178SLPC   C2320223  -0.178   0.210   6.827 -0.0268  0.1119  0.0026
  178SLPC   H3R20224  -0.088   0.273   6.827 -1.0504  1.6207  0.1850
  178SLPC   H3S20225  -0.267   0.276   6.829  0.5014  0.8106  1.0539
  178SLPC   C2420226  -0.184   0.120   6.705  0.2613 -0.5521  0.0282
  178SLPC   H4R20227  -0.280   0.065   6.697  0.2427 -0.8288  1.8008
  178SLPC   H4S20228  -0.103   0.045   6.710  1.0723  0.2213 -1.0001
  178SLPC   C2520229  -0.173   0.206   6.577 -0.2228 -0.0418  0.1289
  178SLPC   H5R20230  -0.072   0.251   6.577 -0.2986  0.1997  1.8196
  178SLPC   H5S20231  -0.244   0.293   6.576 -0.2699 -0.0799  0.1650
  178SLPC   C2620232  -0.188   0.120   6.452  0.1497  0.5817  0.4425
  178SLPC   H6R20233  -0.287   0.070   6.450  0.9035 -1.0808 -2.6517
  178SLPC   H6S20234  -0.115   0.037   6.446 -1.0377 -0.4024 -1.3089
  178SLPC   C2720235  -0.168   0.206   6.326  0.2060  0.2524  0.0218
  178SLPC   H7R20236  -0.069   0.255   6.330  0.3470  0.2086 -2.1051
  178SLPC   H7S20237  -0.240   0.291   6.327 -1.2316 -0.9154 -0.3933
  178SLPC   C2820238  -0.199   0.131   6.200  0.1536  0.6907 -1.3908
  178SLPC   H8R20239  -0.304   0.098   6.205 -0.4034  2.5369  0.9374
  178SLPC   H8S20240  -0.139   0.038   6.201  1.3952  1.4181  1.1464
  178SLPC   C2920241  -0.156   0.208   6.080  0.1744 -0.1184  0.6880
  178SLPC   H9R20242  -0.050   0.236   6.089  0.2563 -0.2347  0.1475
  178SLPC  C21020243  -0.219   0.243   5.964  0.5502  0.0201  0.3339
  178SLPC  H10R20244  -0.165   0.301   5.887  2.9413 -2.3209  0.1071
  178SLPC  C21120245  -0.356   0.185   5.924  0.0609 -0.1198  0.5065
  178SLPC  H11R20246  -0.440   0.236   5.976 -0.8545 -0.7341 -0.3482
  178SLPC  H11S20247  -0.364   0.083   5.967  1.5608  1.3104  4.7178
  178SLPC  C21220248  -0.395   0.193   5.781  0.1896  0.0597 -0.3036
  178SLPC  H12R20249  -0.452   0.285   5.762  0.5920  0.2795 -0.4474
  178SLPC  C21320250  -0.392   0.096   5.682 -0.0371 -0.0745  0.4545
  178SLPC  H13R20251  -0.427   0.124   5.582  1.1099 -2.7052 -0.7663
  178SLPC  C21420252  -0.324  -0.033   5.691 -0.5663  0.4779  0.3660
  178SLPC  H14R20253  -0.356  -0.085   5.598 -0.6475 -0.4763  0.9158
  178SLPC  H14S20254  -0.359  -0.096   5.777  1.0589  1.3996  1.7505
  178SLPC  C21520255  -0.169  -0.038   5.708  0.6134 -0.0313  0.2018
  178SLPC  H15R20256  -0.146   0.001   5.809 -2.9450 -0.2259  1.2234
  178SLPC  H15S20257  -0.130   0.036   5.634 -1.6517 -0.0558 -1.0910
  178SLPC  C21620258  -0.097  -0.172   5.683  0.0187 -0.4823  0.0852
  178SLPC  H16R20259  -0.098  -0.188   5.573  0.4418  1.9223 -0.3342
  178SLPC  H16S20260  -0.157  -0.260   5.713 -2.0744  0.5990 -0.7388
  178SLPC  C21720261   0.054  -0.186   5.722  0.4918 -0.0084 -0.2044
  178SLPC  H17R20262   0.097  -0.084   5.713 -0.4782  0.4763  0.4440
  178SLPC  H17S20263   0.102  -0.257   5.652 -3.1142 -0.3193 -2.6339
  178SLPC  C21820264   0.060  -0.237   5.868 -0.1960 -0.2318  0.2242
  178SLPC  H18R20265  -0.001  -0.174   5.936  0.3610  1.3451 -0.6810
  178SLPC  H18S20266   0.166  -0.245   5.901 -0.2436  0.9821  0.7269
  178SLPC  H18T20267   0.022  -0.341   5.871 -0.6455 -0.0454  1.0928
  178SLPC   C3320268  -0.373  -0.449   6.761  0.4288  0.2577 -0.3956
  178SLPC   H3X20269  -0.461  -0.396   6.802 -1.0738 -2.1027 -0.3580
  178SLPC   H3Y20270  -0.385  -0.549   6.808 -0.9999 -0.1199 -1.5013
  178SLPC   C3420271  -0.394  -0.461   6.605 -0.2552 -0.4488 -0.2579
  178SLPC   H4X20272  -0.312  -0.509   6.548 -0.7032  0.4604 -1.7518
  178SLPC   H4Y20273  -0.419  -0.357   6.574 -2.4695  0.0280  2.6998
  178SLPC   C3520274  -0.521  -0.531   6.575  0.2660  0.1476  0.3598
  178SLPC   H5X20275  -0.606  -0.479   6.623  1.4145  1.5977  0.8718
  178SLPC   H5Y20276  -0.521  -0.636   6.613 -1.6747 -0.9197 -2.2206
  178SLPC   C3620277  -0.533  -0.549   6.419  0.3255  0.4969 -0.5684
  178SLPC   H6X20278  -0.438  -0.587   6.375 -0.0544  0.0804 -1.0429
  178SLPC   H6Y20279  -0.532  -0.444   6.383  0.4391  0.1165 -1.7385
  178SLPC   C3720280  -0.648  -0.633   6.364 -0.4249 -0.4930 -0.1833
  178SLPC   H7X20281  -0.740  -0.590   6.409 -0.3619  1.3642 -1.7107
  178SLPC   H7Y20282  -0.645  -0.737   6.402 -3.5919 -1.0197 -1.1118
  178SLPC   C3820283  -0.666  -0.616   6.212  0.0026  0.3200  0.0421
  178SLPC   H8X20284  -0.633  -0.514   6.184  1.0844  0.3979  1.4533
  178SLPC   H8Y20285  -0.773  -0.641   6.195 -0.4171  1.8212  0.3033
  178SLPC   C3920286  -0.583  -0.710   6.113  0.2630  0.1945 -0.1797
  178SLPC   H9X20287  -0.605  -0.815   6.143  2.6930 -0.5672 -0.8141
  178SLPC   H9Y20288  -0.476  -0.691   6.136 -0.3714  2.8578  0.9349
  178SLPC  C31020289  -0.629  -0.668   5.977  0.5567 -0.0965  0.0563
  178SLPC  H10X20290  -0.605  -0.560   5.963 -1.1202  0.0684 -1.9120
  178SLPC  H10Y20291  -0.738  -0.668   5.958 -0.1804 -0.2674  3.6194
  178SLPC  C31120292  -0.558  -0.735   5.857 -0.5452 -0.2630 -0.3940
  178SLPC  H11X20293  -0.585  -0.843   5.850 -1.1309 -0.2286  0.9975
  178SLPC  H11Y20294  -0.451  -0.727   5.888  0.2141 -1.4361 -2.5000
  178SLPC  C31220295  -0.594  -0.658   5.729 -0.3825 -0.4794  0.1253
  178SLPC  H12X20296  -0.555  -0.554   5.733 -3.6741  0.9067  0.2033
  178SLPC  H12Y20297  -0.705  -0.648   5.731 -0.6018 -2.3769  2.3973
  178SLPC  C31320298  -0.557  -0.720   5.599 -0.5772 -0.5898  0.6631
  178SLPC  H13X20299  -0.591  -0.825   5.600 -0.3343 -0.6825 -0.0511
  178SLPC  H13Y20300  -0.446  -0.718   5.596 -0.5909 -0.0903  0.1713
  178SLPC  C31420301  -0.608  -0.641   5.477 -0.4467  0.2714 -0.5688
  178SLPC  H14X20302  -0.577  -0.534   5.473 -0.9759  0.4393 -0.2801
  178SLPC  H14Y20303  -0.719  -0.628   5.475 -0.6655 -0.9063 -4.0077
  178SLPC  C31520304  -0.571  -0.711   5.343  0.7705 -0.5725 -0.6696
  178SLPC  H15X20305  -0.603  -0.817   5.354  1.4017 -0.5874  1.5312
  178SLPC  H15Y20306  -0.460  -0.712   5.338  0.9306  2.4538  0.1323
  178SLPC  C31620307  -0.633  -0.646   5.222  0.2338  0.5830 -0.1699
  178SLPC  H16X20308  -0.606  -0.540   5.242  1.7791  0.1810  0.0194
  178SLPC  H16Y20309  -0.743  -0.656   5.225  0.3570 -1.0275 -0.4096
  178SLPC  C31720310  -0.577  -0.722   5.096  0.4303 -0.4981  0.4799
  178SLPC  H17X20311  -0.600  -0.831   5.101 -0.3224 -0.4078 -0.6885
  178SLPC  H17Y20312  -0.469  -0.697   5.092 -0.1322  2.1272 -0.0653
  178SLPC  C31820313  -0.641  -0.660   4.973 -0.2693 -0.3907 -0.5217
  178SLPC  H18X20314  -0.578  -0.686   4.885 -0.8004  0.7484 -1.2720
  178SLPC  H18Y20315  -0.642  -0.549   4.968 -2.2301 -0.4064 -1.6858
  178SLPC  H18Z20316  -0.748  -0.688   4.959 -0.2498 -1.6191  1.4458
  179SLPC     N20317   6.423   1.868   2.276  0.4930 -0.0439  0.3869
  179SLPC   C1320318   6.513   1.878   2.392 -0.3427 -0.4244 -0.1901
  179SLPC  H13A20319   6.505   1.790   2.453 -0.4696  1.1550  2.1721
  179SLPC  H13B20320   6.618   1.893   2.368  0.0529 -0.7351  1.2323
  179SLPC  H13C20321   6.480   1.954   2.460 -0.3766 -0.8513  0.2727
  179SLPC   C1420322   6.434   1.985   2.177  0.3772 -0.4353 -0.9423
  179SLPC  H14A20323   6.370   1.982   2.091  0.6443 -0.8601 -1.1312
  179SLPC  H14B20324   6.402   2.070   2.236  1.3700 -0.9649  0.4286
  179SLPC  H14C20325   6.539   1.995   2.154  0.3147 -0.8021 -1.3754
  179SLPC   C1520326   6.279   1.870   2.325 -0.1210  0.3680  0.1098
  179SLPC  H15A20327   6.211   1.903   2.247 -0.1886  0.3743  0.1724
  179SLPC  H15B20328   6.256   1.779   2.378  0.3239  0.1821 -0.0117
  179SLPC  H15C20329   6.261   1.952   2.392 -0.4638  0.4268 -0.0525
  179SLPC   C1220330   6.452   1.741   2.205  0.0965  0.2581  0.0288
  179SLPC  H12A20331   6.547   1.743   2.155  0.1500  0.0374  0.1188
  179SLPC  H12B20332   6.385   1.752   2.122 -1.6253  0.6614  1.3977
  179SLPC   C1120333   6.426   1.602   2.274  0.8717 -0.5063  0.3074
  179SLPC  H11A20334   6.442   1.520   2.201 -0.7385 -2.8411  2.4039
  179SLPC  H11B20335   6.318   1.600   2.299  0.6520  0.7984 -0.4782
  179SLPC     P20336   6.481   1.462   2.493 -0.2966  0.1795  0.2686
  179SLPC   O1320337   6.433   1.339   2.419 -0.4509 -0.6288  0.2917
  179SLPC   O1420338   6.599   1.444   2.579 -0.0875 -0.4581  0.0294
  179SLPC   O1220339   6.508   1.583   2.390  0.2069  0.5573  0.0079
  179SLPC   O1120340   6.362   1.512   2.591  0.5456 -0.4443 -0.3450
  179SLPC    C120341   6.366   1.612   2.689 -0.0107 -0.0513 -0.7933
  179SLPC    HA20342   6.449   1.684   2.671  0.9915 -1.0669 -0.3710
  179SLPC    HB20343   6.275   1.675   2.679  0.8197  1.1151 -1.2425
  179SLPC    C220344   6.371   1.547   2.826 -0.1248 -0.9462 -0.6208
  179SLPC    HS20345   6.478   1.524   2.840  0.6968  3.6491  2.8165
  179SLPC   O2120346   6.287   1.436   2.833  0.1597  0.2975 -0.0166
  179SLPC   C2120347   6.330   1.334   2.899 -0.5383  0.2832 -0.3416
  179SLPC   O2220348   6.433   1.337   2.970  0.4425 -0.2225 -0.6804
  179SLPC   C2220349   6.230   1.227   2.886 -0.1861  0.5771 -0.5267
  179SLPC   H2R20350   6.127   1.266   2.872  0.1831  2.3234  1.2107
  179SLPC   H2S20351   6.269   1.186   2.790  2.2952 -0.9333  1.0117
  179SLPC    C320352   6.341   1.649   2.943 -0.5169  0.4968 -0.9393
  179SLPC    HX20353   6.235   1.671   2.916 -0.9775 -1.8230 -1.2001
  179SLPC    HY20354   6.410   1.735   2.928  3.6380 -2.6419 -1.5496
  179SLPC   O3120355   6.349   1.582   3.069  0.2772 -0.2476 -0.1479
  179SLPC   C3120356   6.451   1.612   3.151 -0.2505 -0.2930  0.1316
  179SLPC   O3220357   6.526   1.710   3.139 -0.0634 -0.4512 -0.4111
  179SLPC   C3220358   6.439   1.517   3.275  1.1980  0.0402  0.7288
  179SLPC   H2X20359   6.348   1.455   3.266  0.3852  1.3762 -0.7086
  179SLPC   H2Y20360   6.426   1.598   3.350 -1.5732  1.2188 -0.8654
  179SLPC   C2320361   6.238   1.115   2.990 -0.2407 -0.1700 -0.5555
  179SLPC   H3R20362   6.340   1.071   3.001  0.6433  1.6805 -1.0391
  179SLPC   H3S20363   6.165   1.037   2.958 -0.0245 -0.8337  0.5010
  179SLPC   C2420364   6.206   1.169   3.130 -0.4152  0.3569 -0.9143
  179SLPC   H4R20365   6.109   1.218   3.110  0.1843  1.4108 -1.3584
  179SLPC   H4S20366   6.285   1.246   3.143  1.5269 -1.0399 -3.4212
  179SLPC   C2520367   6.192   1.062   3.239 -0.2738 -0.3819  0.3811
  179SLPC   H5R20368   6.284   0.998   3.245 -0.8164 -1.3247 -0.9270
  179SLPC   H5S20369   6.098   1.008   3.217 -0.2191 -0.4822  0.3907
  179SLPC   C2620370   6.158   1.129   3.373 -0.0065 -0.2123 -0.0135
  179SLPC   H6R20371   6.135   1.053   3.450 -0.8042  2.1260  2.1911
  179SLPC   H6S20372   6.055   1.172   3.370 -0.1174 -0.5259 -1.3950
  179SLPC   C2720373   6.270   1.227   3.425  0.6756  0.0358 -0.6119
  179SLPC   H7R20374   6.237   1.333   3.429  1.0664  0.1236  0.5836
  179SLPC   H7S20375   6.353   1.233   3.351  0.5702 -0.1446 -0.7451
  179SLPC   C2820376   6.326   1.190   3.568  0.2643  0.0202  0.6502
  179SLPC   H8R20377   6.404   1.262   3.599 -1.2808  1.2422  1.9248
  179SLPC   H8S20378   6.375   1.091   3.556 -0.3936 -0.2961  0.5300
  179SLPC   C2920379   6.224   1.194   3.674  0.1182  0.5845 -0.0578
  179SLPC   H9R20380   6.121   1.175   3.638  0.4784 -0.1207 -0.7482
  179SLPC  C21020381   6.246   1.173   3.808 -0.0037 -0.5185  0.1765
  179SLPC  H10R20382   6.158   1.175   3.875 -0.4940 -0.2422 -0.4651
  179SLPC  C21120383   6.372   1.180   3.891 -1.0649  0.1778 -0.4437
  179SLPC  H11R20384   6.457   1.235   3.846  0.0656  0.1610  1.5445
  179SLPC  H11S20385   6.416   1.078   3.892  1.1963  1.0864 -1.5346
  179SLPC  C21220386   6.362   1.232   4.040 -0.2660 -0.1041 -0.2523
  179SLPC  H12R20387   6.353   1.341   4.050 -0.3235 -0.0328 -0.9781
  179SLPC  C21320388   6.373   1.155   4.154  1.0306 -0.1829  0.6532
  179SLPC  H13R20389   6.400   1.210   4.245  1.1586  1.2544 -0.2227
  179SLPC  C21420390   6.386   1.011   4.169 -0.0166  0.3171 -0.3180
  179SLPC  H14R20391   6.419   0.966   4.072  0.7247 -1.3445  0.6575
  179SLPC  H14S20392   6.287   0.964   4.189  0.5177 -1.0823 -0.8231
  179SLPC  C21520393   6.475   0.963   4.289  0.3819  0.0691  0.3178
  179SLPC  H15R20394   6.435   1.006   4.382  0.6314  0.4165  0.2668
  179SLPC  H15S20395   6.573   1.015   4.279  0.3806 -0.1673 -1.2304
  179SLPC  C21620396   6.505   0.811   4.304  0.1233  0.0530  0.2178
  179SLPC  H16R20397   6.523   0.764   4.205 -0.1719  1.0487 -0.3232
  179SLPC  H16S20398   6.410   0.771   4.345  0.1644 -1.2538 -0.8787
  179SLPC  C21720399   6.614   0.780   4.395  0.2488  0.2608 -0.5427
  179SLPC  H17R20400   6.697   0.828   4.338  0.1596 -0.5178 -1.3429
  179SLPC  H17S20401   6.630   0.672   4.413  2.8829  1.0575  3.0692
  179SLPC  C21820402   6.597   0.845   4.533 -0.1009 -0.1544 -0.5459
  179SLPC  H18R20403   6.490   0.819   4.552  0.1636 -2.1517 -1.4686
  179SLPC  H18S20404   6.622   0.952   4.543 -3.0254  0.5059  0.9829
  179SLPC  H18T20405   6.657   0.787   4.606 -0.7951  1.5816  1.4936
  179SLPC   C3320406   6.565   1.426   3.297 -0.4588 -0.3594  0.1408
  179SLPC   H3X20407   6.560   1.344   3.222  1.5408  1.4354 -2.0874
  179SLPC   H3Y20408   6.550   1.364   3.389  0.4959 -1.4696 -0.4349
  179SLPC   C3420409   6.698   1.500   3.310 -0.3914 -0.8567 -0.4852
  179SLPC   H4X20410   6.722   1.544   3.211 -3.5810  0.2984 -0.8581
  179SLPC   H4Y20411   6.779   1.433   3.347  0.1995 -0.5258 -1.1490
  179SLPC   C3520412   6.697   1.618   3.409  0.2669 -0.5377 -0.3728
  179SLPC   H5X20413   6.799   1.663   3.414  0.1475 -0.0974 -1.4670
  179SLPC   H5Y20414   6.627   1.698   3.377  1.9701  1.0093 -0.4537
  179SLPC   C3620415   6.648   1.590   3.542  0.4854 -0.4973 -1.1127
  179SLPC   H6X20416   6.540   1.567   3.532  0.2727  0.4670 -1.1255
  179SLPC   H6Y20417   6.660   1.680   3.605  1.7557 -1.1542 -0.3703
  179SLPC   C3720418   6.716   1.476   3.616  0.0595  0.2605 -0.1633
  179SLPC   H7X20419   6.824   1.502   3.605  0.1278  0.1511  0.2264
  179SLPC   H7Y20420   6.706   1.385   3.553 -1.3151  0.4348 -0.2250
  179SLPC   C3820421   6.674   1.444   3.760 -0.3292 -0.6923 -0.6738
  179SLPC   H8X20422   6.750   1.379   3.809 -0.6758  0.2646  1.2344
  179SLPC   H8Y20423   6.576   1.393   3.764 -0.4768 -0.7784 -3.2712
  179SLPC   C3920424   6.680   1.563   3.853 -0.1972  0.1754  0.0352
  179SLPC   H9X20425   6.595   1.633   3.840 -1.4965 -1.4034 -0.2671
  179SLPC   H9Y20426   6.775   1.619   3.841 -0.9764  1.7544  0.9758
  179SLPC  C31020427   6.676   1.522   4.001  0.7848  0.2430 -1.2203
  179SLPC  H10X20428   6.770   1.467   4.022  0.9317  0.3907 -1.4936
  179SLPC  H10Y20429   6.600   1.443   4.019  2.5698 -1.0684  1.1318
  179SLPC  C31120430   6.664   1.645   4.097 -0.7097 -0.3697  0.7742
  179SLPC  H11X20431   6.573   1.706   4.084 -1.1052 -1.1862 -0.4375
  179SLPC  H11Y20432   6.756   1.708   4.093  1.0710 -2.8466  0.1359
  179SLPC  C31220433   6.668   1.590   4.240 -0.1973  0.4450 -0.0857
  179SLPC  H12X20434   6.768   1.546   4.260 -0.6967 -0.1945  1.1655
  179SLPC  H12Y20435   6.601   1.503   4.254  1.0716 -0.3840  1.0955
  179SLPC  C31320436   6.640   1.698   4.344  0.2393  0.4059 -0.1050
  179SLPC  H13X20437   6.667   1.649   4.440 -3.0765 -1.4935  0.0011
  179SLPC  H13Y20438   6.534   1.731   4.348  0.7434  2.4459 -1.7394
  179SLPC  C31420439   6.736   1.821   4.322  0.5744  0.6604 -0.2774
  179SLPC  H14X20440   6.692   1.904   4.263 -0.9127 -0.1622 -0.3907
  179SLPC  H14Y20441   6.824   1.777   4.270 -1.1030 -1.9685 -1.1381
  179SLPC  C31520442   6.790   1.879   4.456  0.4406 -0.1915 -0.0751
  179SLPC  H15X20443   6.840   1.974   4.426 -0.6357  0.8678  1.3032
  179SLPC  H15Y20444   6.852   1.813   4.520 -0.3807 -0.9874 -0.0855
  179SLPC  C31620445   6.687   1.925   4.560 -0.1238 -0.2096  0.5413
  179SLPC  H16X20446   6.625   1.835   4.584  0.8014 -1.0097 -0.0055
  179SLPC  H16Y20447   6.605   1.993   4.529 -1.3983 -1.3124  1.3418
  179SLPC  C31720448   6.749   1.978   4.692 -0.4050 -0.5339 -0.4408
  179SLPC  H17X20449   6.777   2.083   4.670  1.0356 -0.3545  1.9014
  179SLPC  H17Y20450   6.838   1.918   4.719  0.1292  0.3251 -0.2504
  179SLPC  C31820451   6.652   1.987   4.810  0.2817  0.3217  0.3878
  179SLPC  H18X20452   6.625   1.881   4.829 -0.0751  0.4499  0.5987
  179SLPC  H18Y20453   6.559   2.045   4.789  0.0743 -0.6325 -1.5304
  179SLPC  H18Z20454   6.701   2.028   4.901  0.3418  2.7698 -0.6516
  180SLPC     N20455   4.612   2.352   1.990 -0.1814  0.4344  0.2717
  180SLPC   C1320456   4.500   2.264   1.949  0.1312 -0.2333  0.0128
  180SLPC  H13A20457   4.522   2.160   1.969 -1.3483 -0.2974  1.6230
  180SLPC  H13B20458   4.412   2.292   2.004  1.3304  0.5303  1.6483
  180SLPC  H13C20459   4.483   2.274   1.843 -2.2800 -1.0588  0.2732
  180SLPC   C1420460   4.576   2.495   1.963  0.4105  0.3859  0.2363
  180SLPC  H14A20461   4.654   2.561   1.997  1.4540 -0.9841  0.5804
  180SLPC  H14B20462   4.558   2.519   1.859 -1.8434 -2.0419 -0.0535
  180SLPC  H14C20463   4.489   2.521   2.021 -0.1168 -3.1621  1.3024
  180SLPC   C1520464   4.731   2.322   1.902  0.8144  0.1270 -0.8532
  180SLPC  H15A20465   4.715   2.357   1.801  2.3846 -0.4524 -1.3391
  180SLPC  H15B20466   4.809   2.389   1.938 -0.5825  0.2170  2.3701
  180SLPC  H15C20467   4.755   2.217   1.899  0.2094 -0.0722  0.5834
  180SLPC   C1220468   4.640   2.332   2.137  0.5754 -0.1073  0.2623
  180SLPC  H12A20469   4.656   2.226   2.153  0.8652 -0.3296 -1.2988
  180SLPC  H12B20470   4.547   2.350   2.188 -0.2102  0.4836 -1.2995
  180SLPC   C1120471   4.761   2.399   2.202 -0.3467 -0.3546 -0.1151
  180SLPC  H11A20472   4.752   2.378   2.311 -1.5828 -1.1417 -0.3507
  180SLPC  H11B20473   4.769   2.509   2.193  1.8039 -0.4210  0.4628
  180SLPC     P20474   4.919   2.182   2.188 -0.0833  0.3284  0.3081
  180SLPC   O1320475   4.798   2.096   2.173 -0.2586 -0.2789  0.2801
  180SLPC   O1420476   5.036   2.146   2.113 -0.0948 -0.2219 -0.1918
  180SLPC   O1220477   4.883   2.337   2.149 -0.2614 -0.1670 -0.1361
  180SLPC   O1120478   4.956   2.190   2.343  0.1881 -0.0814 -0.3389
  180SLPC    C120479   5.055   2.288   2.391  0.1955 -0.0645  0.1956
  180SLPC    HA20480   5.160   2.251   2.398 -0.6287 -2.1922  4.7740
  180SLPC    HB20481   5.063   2.385   2.337  0.6081 -0.7628 -1.0438
  180SLPC    C220482   5.023   2.333   2.529  0.4402 -0.3743 -0.4277
  180SLPC    HS20483   5.097   2.410   2.560  0.2665  0.2138 -1.4044
  180SLPC   O2120484   5.047   2.212   2.608 -0.1198 -0.2140 -0.3327
  180SLPC   C2120485   5.108   2.230   2.717  0.1004 -0.0710 -0.7660
  180SLPC   O2220486   5.148   2.338   2.762  0.1425  0.4064 -0.1133
  180SLPC   C2220487   5.134   2.099   2.796  0.1667 -1.3100 -0.1059
  180SLPC   H2R20488   5.103   2.018   2.728 -1.2692 -0.8609 -0.0056
  180SLPC   H2S20489   5.243   2.103   2.821 -0.2086  1.5844  1.5332
  180SLPC    C320490   4.873   2.386   2.547 -0.0968 -0.3447 -0.4066
  180SLPC    HX20491   4.807   2.299   2.529  2.3825 -2.5588  0.5652
  180SLPC    HY20492   4.848   2.464   2.473 -1.8201 -2.0320 -1.6851
  180SLPC   O3120493   4.858   2.435   2.685  0.6812  0.1605  0.0809
  180SLPC   C3120494   4.924   2.544   2.717 -0.4263 -0.3836 -0.1206
  180SLPC   O3220495   4.994   2.615   2.643  0.6562  0.5228 -0.2087
  180SLPC   C3220496   4.900   2.565   2.865  0.6350 -0.4702 -0.2973
  180SLPC   H2X20497   4.914   2.464   2.910 -0.2005 -0.4173  0.0943
  180SLPC   H2Y20498   4.796   2.600   2.880  0.6572 -1.0094  1.3449
  180SLPC   C2320499   5.044   2.074   2.922  0.2654  0.0543  0.4437
  180SLPC   H3R20500   5.064   1.976   2.970  0.3986 -0.3081 -0.3368
  180SLPC   H3S20501   4.940   2.074   2.884  0.3232  2.5898  0.0839
  180SLPC   C2420502   5.073   2.182   3.024  0.3403 -0.7252  0.0922
  180SLPC   H4R20503   5.065   2.284   2.983  0.1055 -0.6657  0.2857
  180SLPC   H4S20504   5.181   2.174   3.050  0.7557 -1.1851 -1.6580
  180SLPC   C2520505   5.012   2.161   3.163 -0.0167 -0.0009  0.3508
  180SLPC   H5R20506   5.051   2.223   3.246  1.1617 -0.8338  0.4373
  180SLPC   H5S20507   5.039   2.059   3.197  0.5304 -0.6490 -1.8609
  180SLPC   C2620508   4.855   2.183   3.162 -0.2255  0.2529  0.9098
  180SLPC   H6R20509   4.808   2.100   3.105  1.9459  0.0999 -0.8173
  180SLPC   H6S20510   4.835   2.284   3.121 -2.1050 -1.1230 -1.7800
  180SLPC   C2720511   4.801   2.192   3.310 -0.2643 -0.4214  0.7287
  180SLPC   H7R20512   4.863   2.251   3.380  1.5771 -2.9451  1.3441
  180SLPC   H7S20513   4.789   2.095   3.363 -0.3449 -0.1399  1.2286
  180SLPC   C2820514   4.657   2.249   3.324  0.4016 -0.0242 -0.4420
  180SLPC   H8R20515   4.650   2.337   3.257 -2.3269 -1.0449 -1.6579
  180SLPC   H8S20516   4.644   2.295   3.424 -1.8521 -0.7567 -0.3550
  180SLPC   C2920517   4.544   2.157   3.290 -0.2566 -0.3153  0.2512
  180SLPC   H9R20518   4.525   2.137   3.184 -1.7832 -5.1590  1.1705
  180SLPC  C21020519   4.478   2.087   3.382 -0.5135  0.5275 -0.1603
  180SLPC  H10R20520   4.387   2.034   3.350 -0.4201  0.4657 -0.3220
  180SLPC  C21120521   4.508   2.086   3.530  0.9268  0.0890 -0.1282
  180SLPC  H11R20522   4.614   2.061   3.550  1.2705  0.0298 -1.8627
  180SLPC  H11S20523   4.458   1.999   3.577  1.6513 -0.5032 -0.4369
  180SLPC  C21220524   4.486   2.215   3.613 -0.7866 -0.3620 -0.0229
  180SLPC  H12R20525   4.475   2.305   3.551 -0.9196 -0.0005  0.5169
  180SLPC  C21320526   4.500   2.228   3.748  0.4039 -0.4418  0.6949
  180SLPC  H13R20527   4.482   2.324   3.799  1.2466 -0.4201  0.9654
  180SLPC  C21420528   4.532   2.113   3.834 -0.0141  1.0552 -0.7456
  180SLPC  H14R20529   4.641   2.104   3.853 -0.0782  0.7009 -0.5357
  180SLPC  H14S20530   4.506   2.015   3.789 -0.0711 -0.1302  1.6984
  180SLPC  C21520531   4.466   2.130   3.968 -0.5852 -0.7566 -0.2094
  180SLPC  H15R20532   4.467   2.039   4.033  0.8262  0.0194  0.9053
  180SLPC  H15S20533   4.363   2.171   3.970 -0.4035 -0.1120 -2.2729
  180SLPC  C21620534   4.552   2.227   4.054 -0.1794 -0.1831 -0.6751
  180SLPC  H16R20535   4.501   2.326   4.060 -2.2360 -1.1942 -0.5921
  180SLPC  H16S20536   4.648   2.243   4.001  0.2439  1.4922  0.5003
  180SLPC  C21720537   4.577   2.177   4.194 -0.9582 -0.0203 -0.6842
  180SLPC  H17R20538   4.612   2.072   4.198  0.3558  0.3739 -1.4016
  180SLPC  H17S20539   4.478   2.168   4.244  0.5357 -1.5692  2.2809
  180SLPC  C21820540   4.674   2.263   4.273  0.0477 -0.0467  0.1860
  180SLPC  H18R20541   4.689   2.222   4.375 -2.1024  1.1932  1.0778
  180SLPC  H18S20542   4.619   2.357   4.294 -3.3939 -1.9881  0.5687
  180SLPC  H18T20543   4.771   2.275   4.219  0.9306 -1.2658  1.4409
  180SLPC   C3320544   5.001   2.657   2.939 -0.0724  0.2115 -0.0299
  180SLPC   H3X20545   5.008   2.753   2.884  1.9231  0.8410  1.2421
  180SLPC   H3Y20546   5.102   2.610   2.942 -0.8362 -1.4806  2.6083
  180SLPC   C3420547   4.965   2.707   3.084 -0.6465 -1.0141  0.7543
  180SLPC   H4X20548   4.876   2.772   3.065 -1.5016 -2.4622 -0.4332
  180SLPC   H4Y20549   5.051   2.773   3.109 -0.6645 -1.1558  1.1927
  180SLPC   C3520550   4.945   2.601   3.185  0.2050  0.6068 -0.2266
  180SLPC   H5X20551   5.014   2.519   3.157  0.0938  0.3154  0.3379
  180SLPC   H5Y20552   4.846   2.553   3.168  0.0800  0.6215  0.4584
  180SLPC   C3620553   4.960   2.651   3.327  0.3536  0.3460 -0.6600
  180SLPC   H6X20554   4.878   2.724   3.344  0.0578  0.3302 -1.8779
  180SLPC   H6Y20555   5.058   2.698   3.345 -0.9848  3.6642 -1.3142
  180SLPC   C3720556   4.935   2.543   3.435 -0.6172 -0.1281  0.1881
  180SLPC   H7X20557   5.016   2.467   3.432  0.1149  0.6190  0.7756
  180SLPC   H7Y20558   4.834   2.499   3.419 -1.1657  0.8046  0.9708
  180SLPC   C3820559   4.938   2.601   3.578  0.1559  0.9134 -0.4234
  180SLPC   H8X20560   4.836   2.643   3.586 -0.0079  0.5204 -0.4439
  180SLPC   H8Y20561   5.008   2.687   3.588 -0.1752  1.2420 -0.9156
  180SLPC   C3920562   4.974   2.493   3.681 -0.2653  0.3772 -0.1941
  180SLPC   H9X20563   4.941   2.530   3.781 -0.6887 -0.7141  0.0944
  180SLPC   H9Y20564   5.081   2.466   3.693 -0.2945 -1.1436 -2.6079
  180SLPC  C31020565   4.903   2.360   3.665 -0.4336 -0.3230 -0.3275
  180SLPC  H10X20566   4.958   2.293   3.596  0.1617  2.0309 -2.2761
  180SLPC  H10Y20567   4.799   2.365   3.626 -0.6197 -1.0717  0.0584
  180SLPC  C31120568   4.881   2.290   3.804 -0.4181  0.2493  0.6622
  180SLPC  H11X20569   4.826   2.193   3.797  0.4171 -0.1839 -0.1594
  180SLPC  H11Y20570   4.810   2.350   3.865 -0.6209  1.4792 -0.7385
  180SLPC  C31220571   5.017   2.260   3.874 -0.0855  0.3592 -0.1378
  180SLPC  H12X20572   5.083   2.348   3.863  0.0740 -0.0068 -2.5914
  180SLPC  H12Y20573   5.050   2.164   3.830  1.2681 -0.8479  3.1554
  180SLPC  C31320574   4.983   2.235   4.025  0.5614 -0.0051 -0.2194
  180SLPC  H13X20575   4.927   2.140   4.034 -3.0089  1.9229 -0.2252
  180SLPC  H13Y20576   4.921   2.316   4.070 -1.7241 -1.3981 -0.6894
  180SLPC  C31420577   5.117   2.233   4.107  0.7900 -0.2392  0.1066
  180SLPC  H14X20578   5.178   2.320   4.074  0.1433 -0.4355 -1.6668
  180SLPC  H14Y20579   5.165   2.134   4.086 -1.2149 -1.0220 -1.0632
  180SLPC  C31520580   5.084   2.241   4.255 -0.4135  0.0889 -0.0645
  180SLPC  H15X20581   5.010   2.321   4.277 -0.4165  0.0367  0.1241
  180SLPC  H15Y20582   5.177   2.271   4.309 -1.1428  0.2134  1.1733
  180SLPC  C31620583   5.022   2.110   4.316  0.3078 -0.0444 -0.1511
  180SLPC  H16X20584   4.934   2.075   4.258  0.3691  0.4218 -0.5282
  180SLPC  H16Y20585   4.995   2.123   4.423  0.8168  0.6224 -0.0977
  180SLPC  C31720586   5.109   1.976   4.318 -0.3437 -0.1451  0.6761
  180SLPC  H17X20587   5.197   1.988   4.385 -0.1921 -3.0153  1.1394
  180SLPC  H17Y20588   5.139   1.967   4.211  0.4479  2.5339  0.6188
  180SLPC  C31820589   5.019   1.863   4.365  0.2581  0.1777 -0.4655
  180SLPC  H18X20590   4.952   1.831   4.282 -1.5686  0.7323  0.7444
  180SLPC  H18Y20591   4.962   1.873   4.459  2.1256  1.5470  0.5808
  180SLPC  H18Z20592   5.087   1.776   4.376  1.9305  1.4276 -0.4050
  181SLPC     N20593   4.524   2.917   2.232 -0.3848 -0.5079  0.3247
  181SLPC   C1320594   4.652   2.844   2.260  0.7329  0.1915 -0.0507
  181SLPC  H13A20595   4.654   2.738   2.239 -1.0621 -0.4231  2.4384
  181SLPC  H13B20596   4.733   2.888   2.204  1.4400 -1.1241 -0.1084
  181SLPC  H13C20597   4.677   2.863   2.363 -0.8255  4.4564 -0.2896
  181SLPC   C1420598   4.457   2.864   2.112 -0.3299 -0.2173 -0.2795
  181SLPC  H14A20599   4.522   2.846   2.028  0.3513 -0.2540  0.2539
  181SLPC  H14B20600   4.415   2.767   2.136  1.4512 -0.5929  1.5731
  181SLPC  H14C20601   4.380   2.933   2.082 -1.1722  0.3561  2.8541
  181SLPC   C1520602   4.548   3.065   2.217  0.0445 -0.2416 -0.3771
  181SLPC  H15A20603   4.457   3.123   2.210 -0.0288 -0.4148 -0.9600
  181SLPC  H15B20604   4.602   3.112   2.298  2.1382  0.2211 -1.9401
  181SLPC  H15C20605   4.598   3.093   2.125 -0.7927  0.4099 -0.6441
  181SLPC   C1220606   4.435   2.901   2.358 -0.0799 -0.5754  0.0169
  181SLPC  H12A20607   4.482   2.948   2.444 -1.7229  0.1167  0.5776
  181SLPC  H12B20608   4.441   2.797   2.387 -2.1618 -0.8142 -0.2724
  181SLPC   C1120609   4.289   2.943   2.335 -0.2350 -0.0931 -0.3122
  181SLPC  H11A20610   4.242   2.892   2.248  0.5800 -2.6470  0.6553
  181SLPC  H11B20611   4.299   3.053   2.324  1.8299 -0.3305 -1.3972
  181SLPC     P20612   4.163   2.767   2.482 -0.5979 -0.2354 -0.0567
  181SLPC   O1320613   4.015   2.774   2.459 -0.1521  0.2969 -0.0090
  181SLPC   O1420614   4.242   2.677   2.396  0.5116 -0.1242 -0.1338
  181SLPC   O1220615   4.210   2.921   2.452  0.4827  0.7279  0.3704
  181SLPC   O1120616   4.205   2.740   2.637  0.3096 -0.1919  0.6444
  181SLPC    C120617   4.339   2.778   2.679 -0.9949 -0.2211  0.5688
  181SLPC    HA20618   4.421   2.732   2.620 -0.6212  1.8206 -0.5999
  181SLPC    HB20619   4.343   2.888   2.668 -0.6301 -0.1719  1.1807
  181SLPC    C220620   4.353   2.742   2.824 -0.1915  0.5907 -0.5167
  181SLPC    HS20621   4.331   2.634   2.839  3.1431 -0.2300 -0.6598
  181SLPC   O2120622   4.259   2.814   2.903 -0.1986 -0.4508  0.4121
  181SLPC   C2120623   4.195   2.751   2.993 -0.6130  0.0076  0.8659
  181SLPC   O2220624   4.220   2.637   3.032 -0.5687  0.1944 -0.0527
  181SLPC   C2220625   4.083   2.833   3.063 -1.1989 -0.3031  0.0616
  181SLPC   H2R20626   4.071   2.925   3.002 -4.1507 -1.7550 -1.7799
  181SLPC   H2S20627   3.988   2.775   3.061 -0.2986 -1.9077  1.3113
  181SLPC    C320628   4.500   2.766   2.869 -0.4781 -0.3455  0.0779
  181SLPC    HX20629   4.533   2.871   2.861  0.3777 -0.6898 -1.1253
  181SLPC    HY20630   4.566   2.708   2.801 -0.6381 -1.1271  0.5636
  181SLPC   O3120631   4.528   2.710   3.001  0.3479  0.3078 -0.3931
  181SLPC   C3120632   4.514   2.806   3.098  0.3990 -0.2818  0.2939
  181SLPC   O3220633   4.493   2.925   3.075  0.5673 -0.1017  0.0822
  181SLPC   C3220634   4.553   2.766   3.238  0.3567 -0.1137 -0.0821
  181SLPC   H2X20635   4.526   2.852   3.304 -1.7082  0.5258 -1.6574
  181SLPC   H2Y20636   4.664   2.764   3.242  0.3094 -0.7683  1.3231
  181SLPC   C2320637   4.129   2.876   3.206 -0.2202 -0.3659 -0.3129
  181SLPC   H3R20638   4.063   2.961   3.233 -0.2705 -0.4661 -0.1161
  181SLPC   H3S20639   4.232   2.912   3.229 -0.2365 -0.4109 -0.1715
  181SLPC   C2420640   4.096   2.777   3.319  0.0161  0.4126 -0.3409
  181SLPC   H4R20641   4.166   2.691   3.310 -0.9179 -0.2780 -1.1085
  181SLPC   H4S20642   3.991   2.747   3.301 -0.1863  1.6972 -1.3912
  181SLPC   C2520643   4.093   2.839   3.465  0.0676 -0.5559  0.2440
  181SLPC   H5R20644   4.017   2.920   3.466 -0.9950 -1.5345  0.7441
  181SLPC   H5S20645   4.193   2.874   3.500  0.2566  0.8561 -1.5806
  181SLPC   C2620646   4.047   2.726   3.562 -0.2236 -0.7301  0.0867
  181SLPC   H6R20647   4.121   2.643   3.562  1.3062  0.5149  2.3352
  181SLPC   H6S20648   3.945   2.684   3.553 -0.3053 -0.8663  1.5001
  181SLPC   C2720649   4.052   2.782   3.705 -0.0848  0.0525  0.6163
  181SLPC   H7R20650   3.999   2.880   3.700  0.2601  0.1934 -0.6936
  181SLPC   H7S20651   4.156   2.809   3.730 -0.5272  0.9310  1.6082
  181SLPC   C2820652   4.005   2.678   3.805  0.2924  0.0266 -0.1439
  181SLPC   H8R20653   3.905   2.641   3.774  0.5471  0.1508 -1.1662
  181SLPC   H8S20654   3.990   2.742   3.894 -1.0231 -1.0681  0.4508
  181SLPC   C2920655   4.098   2.564   3.835 -0.4990  0.4182 -0.3422
  181SLPC   H9R20656   4.153   2.537   3.743  0.5286  2.6831 -0.4614
  181SLPC  C21020657   4.124   2.513   3.959  1.0357  0.0933  0.4133
  181SLPC  H10R20658   4.180   2.418   3.965 -1.1987 -1.1737  2.7718
  181SLPC  C21120659   4.073   2.562   4.099 -0.0794  0.0108 -0.0860
  181SLPC  H11R20660   4.014   2.656   4.090 -2.2088 -1.2198  0.5533
  181SLPC  H11S20661   4.162   2.577   4.164  0.5821  0.5770 -1.0730
  181SLPC  C21220662   3.977   2.459   4.161 -1.2701  0.0962 -0.3439
  181SLPC  H12R20663   3.886   2.442   4.101 -1.1024 -1.1472 -0.2594
  181SLPC  C21320664   3.998   2.380   4.269 -0.2388  0.2801 -0.0568
  181SLPC  H13R20665   3.915   2.317   4.303 -1.0311  0.9391 -0.7434
  181SLPC  C21420666   4.118   2.374   4.357  0.0644  0.9374 -0.9467
  181SLPC  H14R20667   4.091   2.424   4.453 -0.9118 -1.1189 -0.0943
  181SLPC  H14S20668   4.191   2.438   4.302 -0.6908  1.3386 -1.4968
  181SLPC  C21520669   4.190   2.242   4.403  0.1386 -0.4205  0.5754
  181SLPC  H15R20670   4.199   2.172   4.317 -4.3229 -2.0564  1.1771
  181SLPC  H15S20671   4.111   2.192   4.464 -2.3808  0.8840 -1.4187
  181SLPC  C21620672   4.313   2.260   4.487 -0.7263 -0.1236 -0.0469
  181SLPC  H16R20673   4.372   2.328   4.423  0.6407 -0.8361  0.4212
  181SLPC  H16S20674   4.373   2.166   4.485  0.9179  0.8990 -0.3411
  181SLPC  C21720675   4.295   2.323   4.629  0.8094  0.5474  0.6644
  181SLPC  H17R20676   4.233   2.415   4.623 -3.1572 -1.9662 -1.1439
  181SLPC  H17S20677   4.394   2.356   4.667  0.5889 -0.6556  2.4087
  181SLPC  C21820678   4.233   2.218   4.725 -0.6201 -0.8752  0.0534
  181SLPC  H18R20679   4.253   2.247   4.830 -1.1820 -3.9145  1.0943
  181SLPC  H18S20680   4.290   2.122   4.723 -0.9187 -1.0383 -0.9590
  181SLPC  H18T20681   4.129   2.197   4.692 -1.4386  0.7623  1.4423
  181SLPC   C3320682   4.491   2.631   3.278 -0.3631  0.3689 -0.5702
  181SLPC   H3X20683   4.523   2.551   3.208 -1.2137  0.5840 -1.2089
  181SLPC   H3Y20684   4.380   2.627   3.275 -0.3564 -1.4629  0.2920
  181SLPC   C3420685   4.538   2.575   3.416 -0.5034  0.0880 -0.5372
  181SLPC   H4X20686   4.646   2.591   3.437  0.3178 -2.3140 -2.4606
  181SLPC   H4Y20687   4.522   2.465   3.419 -1.6491  0.1950 -1.7071
  181SLPC   C3520688   4.455   2.622   3.538 -0.0785  0.4064 -1.2617
  181SLPC   H5X20689   4.363   2.559   3.541 -0.3163  0.7184  2.1044
  181SLPC   H5Y20690   4.421   2.728   3.531 -0.9244  0.3284  0.8390
  181SLPC   C3620691   4.531   2.613   3.673  0.4583 -0.5909  0.3419
  181SLPC   H6X20692   4.620   2.679   3.665 -1.2644  1.9406  0.9901
  181SLPC   H6Y20693   4.574   2.511   3.684  0.5356 -0.4354  1.6642
  181SLPC   C3720694   4.453   2.652   3.796  0.2315  0.8720 -0.2224
  181SLPC   H7X20695   4.353   2.613   3.770 -0.7143  2.2408  1.1678
  181SLPC   H7Y20696   4.435   2.762   3.799  1.0456  0.9973  2.2767
  181SLPC   C3820697   4.518   2.618   3.928 -0.2291 -0.7726  0.4531
  181SLPC   H8X20698   4.605   2.686   3.914 -1.2128  0.0376 -2.5431
  181SLPC   H8Y20699   4.547   2.512   3.934  1.7319 -0.5267 -2.5740
  181SLPC   C3920700   4.442   2.655   4.053 -0.0285  0.4206  0.2253
  181SLPC   H9X20701   4.360   2.580   4.053 -0.3378  0.7507  1.1076
  181SLPC   H9Y20702   4.378   2.745   4.038 -1.2829 -0.6185 -0.9209
  181SLPC  C31020703   4.508   2.646   4.184  0.3389 -0.3215 -0.0333
  181SLPC  H10X20704   4.610   2.690   4.178  0.7663 -1.4551 -2.4108
  181SLPC  H10Y20705   4.511   2.541   4.220  1.5225  0.5967  2.8451
  181SLPC  C31120706   4.430   2.729   4.290 -0.5088 -0.5104 -0.7584
  181SLPC  H11X20707   4.336   2.676   4.316 -1.5278  1.1594 -0.9721
  181SLPC  H11Y20708   4.402   2.821   4.235  0.8760 -1.0344 -2.4234
  181SLPC  C31220709   4.502   2.772   4.416  0.6781 -0.1077 -0.3045
  181SLPC  H12X20710   4.449   2.859   4.461  1.9943  1.3378 -1.4340
  181SLPC  H12Y20711   4.601   2.820   4.404  2.2075 -2.2992  2.4327
  181SLPC  C31320712   4.531   2.656   4.508 -0.6858 -0.1388 -0.3391
  181SLPC  H13X20713   4.564   2.580   4.434  0.9959  0.0042  0.2105
  181SLPC  H13Y20714   4.445   2.631   4.573 -0.1530 -0.5882  0.2107
  181SLPC  C31420715   4.659   2.679   4.596 -0.0107  0.1420  0.3904
  181SLPC  H14X20716   4.638   2.758   4.671  3.8854  2.0376 -0.2444
  181SLPC  H14Y20717   4.740   2.724   4.536  0.0372 -0.6269 -0.1408
  181SLPC  C31520718   4.699   2.552   4.670 -0.1731  0.2233 -0.5714
  181SLPC  H15X20719   4.718   2.477   4.590 -3.0366 -0.9397 -0.2553
  181SLPC  H15Y20720   4.608   2.513   4.719  0.4379 -2.2998 -1.2803
  181SLPC  C31620721   4.827   2.561   4.753 -0.0527 -0.1015  0.0238
  181SLPC  H16X20722   4.807   2.646   4.823  0.6514  0.5916 -0.5940
  181SLPC  H16Y20723   4.904   2.594   4.681 -0.5832 -0.4357 -0.7037
  181SLPC  C31720724   4.868   2.438   4.837  0.3486 -1.1242  0.2453
  181SLPC  H17X20725   4.957   2.471   4.894  0.4480  0.3579 -0.7030
  181SLPC  H17Y20726   4.900   2.368   4.756  1.1712  1.6384 -1.9703
  181SLPC  C31820727   4.755   2.392   4.928  1.0012 -0.5792 -0.5777
  181SLPC  H18X20728   4.722   2.483   4.981 -0.9319 -1.0765 -0.8483
  181SLPC  H18Y20729   4.770   2.312   5.005  0.3309  1.3049  1.6331
  181SLPC  H18Z20730   4.675   2.348   4.865 -0.7539 -0.1437  1.2259
  182SLPC     N20731   1.493   4.080   2.575 -0.3813 -0.1206 -0.4173
  182SLPC   C1320732   1.633   4.057   2.632 -0.1528  0.3591  1.0302
  182SLPC  H13A20733   1.646   4.102   2.729  2.5335  0.4132  0.7439
  182SLPC  H13B20734   1.641   3.950   2.645 -0.6388  0.1928  0.0397
  182SLPC  H13C20735   1.704   4.098   2.561 -0.3200 -0.0177  0.6392
  182SLPC   C1420736   1.406   3.982   2.658  0.1139 -0.3681  0.4490
  182SLPC  H14A20737   1.408   3.998   2.765  2.1572 -1.8548  0.6790
  182SLPC  H14B20738   1.304   3.979   2.622  0.4308  0.3414 -0.5528
  182SLPC  H14C20739   1.444   3.882   2.651 -2.0854 -1.2634  0.3434
  182SLPC   C1520740   1.493   4.053   2.427  0.2755 -0.0413 -0.5382
  182SLPC  H15A20741   1.398   4.075   2.383  0.2148 -1.1947 -1.0268
  182SLPC  H15B20742   1.571   4.106   2.375  1.6103 -1.2426  0.1375
  182SLPC  H15C20743   1.515   3.949   2.403  3.5687  0.3245  0.3228
  182SLPC   C1220744   1.451   4.224   2.607  0.2986  0.6874 -0.5466
  182SLPC  H12A20745   1.358   4.238   2.553 -0.2243  1.8857  0.6188
  182SLPC  H12B20746   1.513   4.297   2.558  0.2456  0.9353 -0.2434
  182SLPC   C1120747   1.434   4.278   2.751  0.0992 -0.2268 -0.6868
  182SLPC  H11A20748   1.373   4.207   2.812 -0.4297 -1.7357 -2.8455
  182SLPC  H11B20749   1.379   4.373   2.736 -0.8193 -0.6154  0.1000
  182SLPC     P20750   1.657   4.427   2.795 -0.0724  0.4173  0.2919
  182SLPC   O1320751   1.682   4.455   2.652  0.1199 -0.4457 -0.0491
  182SLPC   O1420752   1.612   4.532   2.882 -0.1509 -0.4264  0.1842
  182SLPC   O1220753   1.566   4.291   2.811  0.7779  0.0611 -0.3750
  182SLPC   O1120754   1.799   4.382   2.862  0.2957  0.3479 -0.5807
  182SLPC    C120755   1.838   4.246   2.889 -0.2519  0.1554 -0.2826
  182SLPC    HA20756   1.764   4.168   2.862 -2.2750  1.9999 -0.2889
  182SLPC    HB20757   1.928   4.224   2.827 -0.9253 -1.9357 -0.5844
  182SLPC    C220758   1.866   4.221   3.043 -0.6719  0.2467  0.3664
  182SLPC    HS20759   1.767   4.244   3.087 -0.6872  2.3564 -0.6627
  182SLPC   O2120760   1.982   4.305   3.089  0.0673 -0.2628  0.0711
  182SLPC   C2120761   1.942   4.418   3.139 -0.9872 -0.5166 -0.7262
  182SLPC   O2220762   1.835   4.444   3.184  0.0494  0.2590 -0.4512
  182SLPC   C2220763   2.066   4.513   3.153  0.0647 -0.5033  0.2342
  182SLPC   H2R20764   2.161   4.456   3.151  0.2759 -0.1700 -1.8238
  182SLPC   H2S20765   2.066   4.571   3.058 -0.3852 -0.7947  0.0509
  182SLPC    C320766   1.911   4.065   3.068  0.6904 -0.5564  0.2033
  182SLPC    HX20767   2.021   4.047   3.064  0.9313 -0.3157  3.2728
  182SLPC    HY20768   1.860   4.010   2.987  0.8515 -0.9852  0.3929
  182SLPC   O3120769   1.874   4.010   3.196  0.5631 -0.7323  0.2652
  182SLPC   C3120770   1.755   3.936   3.194 -0.5000  0.6567 -0.8040
  182SLPC   O3220771   1.685   3.913   3.104 -0.0540  0.1414 -0.9667
  182SLPC   C3220772   1.730   3.897   3.342 -0.3184 -0.0576  0.3678
  182SLPC   H2X20773   1.748   3.991   3.399 -2.0446 -1.3741  3.3039
  182SLPC   H2Y20774   1.798   3.820   3.384 -2.8706 -0.1389  4.9606
  182SLPC   C2320775   2.053   4.627   3.262 -0.2918 -0.2071 -0.1321
  182SLPC   H3R20776   1.948   4.666   3.265 -0.2577  0.0064 -1.0966
  182SLPC   H3S20777   2.111   4.710   3.217 -0.7493  0.4863  0.5266
  182SLPC   C2420778   2.104   4.581   3.399 -0.0225  0.1319  0.3782
  182SLPC   H4R20779   2.110   4.665   3.471 -2.7254 -0.6133  1.6285
  182SLPC   H4S20780   2.207   4.547   3.374 -0.5823 -1.3599 -0.0486
  182SLPC   C2520781   2.023   4.461   3.456 -0.4872  0.1605  0.4991
  182SLPC   H5R20782   2.061   4.365   3.414  2.0655  0.4312  1.9710
  182SLPC   H5S20783   1.913   4.474   3.445 -0.6943 -0.8591  1.2061
  182SLPC   C2620784   2.049   4.424   3.606 -0.2260 -0.4896 -0.1899
  182SLPC   H6R20785   2.042   4.522   3.659  1.0855  0.5833 -1.8705
  182SLPC   H6S20786   2.150   4.389   3.635 -0.7593 -2.0933 -0.1879
  182SLPC   C2720787   1.954   4.324   3.672 -0.5920 -0.5358  0.0577
  182SLPC   H7R20788   1.948   4.228   3.617  0.7738 -0.7410  0.2285
  182SLPC   H7S20789   1.861   4.380   3.650  0.4793  0.7415 -1.3629
  182SLPC   C2820790   1.977   4.308   3.818  0.4349  0.1137 -0.0151
  182SLPC   H8R20791   1.971   4.412   3.856 -1.5887 -0.0617  0.2489
  182SLPC   H8S20792   2.080   4.265   3.822 -0.4132 -2.3062 -1.7113
  182SLPC   C2920793   1.882   4.218   3.887 -0.0758 -0.5277  0.8106
  182SLPC   H9R20794   1.827   4.151   3.819 -1.0674 -0.6142  1.6715
  182SLPC  C21020795   1.848   4.234   4.013 -0.7634 -1.1607  0.1275
  182SLPC  H10R20796   1.775   4.158   4.047 -0.7377 -1.7164 -1.0064
  182SLPC  C21120797   1.880   4.346   4.106  0.2018  0.0622  0.1155
  182SLPC  H11R20798   1.789   4.366   4.165 -1.1244 -0.4641 -1.6511
  182SLPC  H11S20799   1.874   4.438   4.044  0.3680  0.6131  0.9058
  182SLPC  C21220800   2.014   4.342   4.180 -0.7559  0.4840 -0.0800
  182SLPC  H12R20801   2.100   4.284   4.143  0.3776  0.3819  2.4948
  182SLPC  C21320802   2.025   4.377   4.305 -0.0512 -0.1222 -0.2792
  182SLPC  H13R20803   2.129   4.388   4.341  0.0967 -1.5793 -0.2039
  182SLPC  C21420804   1.918   4.431   4.399 -0.0013  0.3806  0.5185
  182SLPC  H14R20805   1.829   4.365   4.392  0.5259 -0.1822 -1.7755
  182SLPC  H14S20806   1.882   4.532   4.369  1.9486  0.2665 -2.6592
  182SLPC  C21520807   1.976   4.428   4.546  1.2332 -0.3265 -0.1974
  182SLPC  H15R20808   2.080   4.468   4.546  1.9799 -2.1688  1.0817
  182SLPC  H15S20809   1.981   4.324   4.584 -2.0765 -0.7919 -0.7423
  182SLPC  C21620810   1.904   4.526   4.643  0.4335 -0.0912  0.2732
  182SLPC  H16R20811   1.914   4.630   4.605 -0.7125 -0.1499 -0.2238
  182SLPC  H16S20812   1.961   4.523   4.739  2.9076 -1.8255 -1.1479
  182SLPC  C21720813   1.754   4.498   4.655 -0.0061 -0.4181  0.3424
  182SLPC  H17R20814   1.755   4.394   4.694 -0.2638  0.2861  2.3746
  182SLPC  H17S20815   1.702   4.507   4.558  2.2401  2.3764 -0.7530
  182SLPC  C21820816   1.674   4.580   4.749 -0.2183  0.1212  0.0625
  182SLPC  H18R20817   1.654   4.685   4.720  1.1218  1.0208  2.1138
  182SLPC  H18S20818   1.713   4.579   4.854 -0.4047  1.8339  0.1858
  182SLPC  H18T20819   1.568   4.547   4.755 -0.6186  1.2278 -0.6740
  182SLPC   C3320820   1.591   3.848   3.369  0.8812 -0.0953 -0.0284
  182SLPC   H3X20821   1.587   3.739   3.350 -2.3551  0.0829 -0.9134
  182SLPC   H3Y20822   1.520   3.900   3.301 -0.0708 -2.1002 -0.6576
  182SLPC   C3420823   1.542   3.887   3.512 -0.6762  0.1118  0.1938
  182SLPC   H4X20824   1.443   3.848   3.543 -0.5099 -0.3028  0.2102
  182SLPC   H4Y20825   1.542   3.998   3.521  0.6702  0.0502  1.2590
  182SLPC   C3520826   1.629   3.831   3.623 -0.9046  0.4790  0.0068
  182SLPC   H5X20827   1.732   3.866   3.602  0.2546 -0.4458  3.4683
  182SLPC   H5Y20828   1.641   3.723   3.598 -0.2613  0.9275 -1.7699
  182SLPC   C3620829   1.576   3.857   3.758  0.3594 -0.1492 -0.1411
  182SLPC   H6X20830   1.492   3.791   3.786  1.5401 -2.1618 -1.0841
  182SLPC   H6Y20831   1.549   3.964   3.771  0.4270 -0.0939 -0.4410
  182SLPC   C3720832   1.684   3.828   3.870  0.1132  0.8695  0.1473
  182SLPC   H7X20833   1.768   3.895   3.841  1.8156 -1.8239 -1.5062
  182SLPC   H7Y20834   1.708   3.720   3.872 -0.9282  0.6363  0.4892
  182SLPC   C3820835   1.642   3.874   4.002 -0.5987 -0.4746 -0.1889
  182SLPC   H8X20836   1.547   3.824   4.031 -0.4282  1.0091  3.5681
  182SLPC   H8Y20837   1.617   3.982   3.998 -1.0596 -0.5699  0.0043
  182SLPC   C3920838   1.741   3.857   4.113 -0.3209  0.0815 -0.0841
  182SLPC   H9X20839   1.827   3.925   4.094 -2.0992  2.2824 -0.5995
  182SLPC   H9Y20840   1.800   3.762   4.112  3.3459  2.0904  1.8398
  182SLPC  C31020841   1.692   3.902   4.248  0.2394 -0.3713 -0.6131
  182SLPC  H10X20842   1.610   3.830   4.268  0.0072  0.7644  3.1875
  182SLPC  H10Y20843   1.641   4.000   4.242 -1.3974 -0.7807  3.4514
  182SLPC  C31120844   1.782   3.887   4.363  0.2488  0.0495  0.6906
  182SLPC  H11X20845   1.744   3.933   4.457 -0.8530 -1.9015  1.2636
  182SLPC  H11Y20846   1.878   3.940   4.343 -0.5102  1.9980  1.9502
  182SLPC  C31220847   1.813   3.742   4.408  0.2519 -0.0995 -0.5156
  182SLPC  H12X20848   1.828   3.675   4.320 -0.7744 -0.1930 -0.6310
  182SLPC  H12Y20849   1.726   3.692   4.455 -0.5270  2.5170  1.0172
  182SLPC  C31320850   1.936   3.732   4.512 -0.0286 -0.2455  0.9753
  182SLPC  H13X20851   1.985   3.828   4.536  0.5059 -0.0039 -0.9026
  182SLPC  H13Y20852   2.008   3.664   4.461 -1.2491  0.1973 -1.5210
  182SLPC  C31420853   1.888   3.665   4.644 -0.2898 -0.0559  0.6727
  182SLPC  H14X20854   1.812   3.731   4.690 -0.9186 -0.3100  0.0089
  182SLPC  H14Y20855   1.973   3.661   4.716  2.5932 -2.2410 -2.5563
  182SLPC  C31520856   1.848   3.515   4.623  0.2611  0.3122 -0.5569
  182SLPC  H15X20857   1.917   3.453   4.561 -0.9525 -0.2023 -1.4486
  182SLPC  H15Y20858   1.761   3.504   4.555 -1.5555 -2.2985  1.9546
  182SLPC  C31620859   1.803   3.450   4.758  0.3991 -0.3227  0.4373
  182SLPC  H16X20860   1.745   3.525   4.816  0.2972  0.0659 -0.1493
  182SLPC  H16Y20861   1.876   3.400   4.824  2.1299  0.0914 -1.0738
  182SLPC  C31720862   1.690   3.345   4.731  0.2877 -0.3919  0.2301
  182SLPC  H17X20863   1.746   3.261   4.684  0.8041  0.3752 -0.5537
  182SLPC  H17Y20864   1.615   3.394   4.665  0.0948  0.7690  1.2770
  182SLPC  C31820865   1.636   3.283   4.853 -0.5926  0.3181 -0.4452
  182SLPC  H18X20866   1.565   3.201   4.831 -2.7770  1.2393  2.4916
  182SLPC  H18Y20867   1.572   3.350   4.914 -0.9842 -1.6545  1.4152
  182SLPC  H18Z20868   1.722   3.255   4.917 -0.4229  1.2469 -0.2520
  183SLPC     N20869   3.309   3.198   2.091  0.5227 -0.0203  0.1667
  183SLPC   C1320870   3.173   3.189   2.029  0.7719  0.6403 -0.3214
  183SLPC  H13A20871   3.115   3.275   2.056  3.1997  1.9290  1.1835
  183SLPC  H13B20872   3.177   3.172   1.923 -0.4715 -2.1298 -0.0211
  183SLPC  H13C20873   3.118   3.102   2.062  0.2922  0.2476 -2.0812
  183SLPC   C1420874   3.386   3.311   2.029  0.1589  0.5031 -0.0489
  183SLPC  H14A20875   3.381   3.297   1.922 -1.0609 -1.3164  0.2048
  183SLPC  H14B20876   3.329   3.399   2.056 -2.2852 -1.5556  2.0311
  183SLPC  H14C20877   3.490   3.313   2.055  1.1046  3.2633 -3.3227
  183SLPC   C1520878   3.370   3.069   2.056  0.0047  0.7030 -0.4561
  183SLPC  H15A20879   3.364   3.060   1.948 -1.6661  0.8980 -0.4113
  183SLPC  H15B20880   3.472   3.063   2.090  0.2461  0.4790 -1.1933
  183SLPC  H15C20881   3.323   2.990   2.112 -1.6526  0.4317 -2.1310
  183SLPC   C1220882   3.294   3.216   2.239  0.1380 -0.0528 -0.6499
  183SLPC  H12A20883   3.388   3.203   2.290 -2.0083 -0.5429  3.6738
  183SLPC  H12B20884   3.235   3.135   2.279  0.8132  0.4527  1.4987
  183SLPC   C1120885   3.227   3.343   2.302 -0.4960 -1.0721 -0.5550
  183SLPC  H11A20886   3.276   3.434   2.260 -0.8036 -1.7659 -2.5122
  183SLPC  H11B20887   3.236   3.340   2.413 -0.3446 -1.0727 -0.5665
  183SLPC     P20888   2.970   3.291   2.344 -0.1287  0.1529 -0.1268
  183SLPC   O1320889   2.923   3.397   2.439  0.5077 -0.2105  0.6965
  183SLPC   O1420890   2.880   3.228   2.246  0.2518 -0.9086  0.1127
  183SLPC   O1220891   3.095   3.349   2.260 -0.2828  0.4177  0.3922
  183SLPC   O1120892   3.035   3.181   2.424  0.1184 -0.9300  0.1582
  183SLPC    C120893   2.982   3.059   2.480  0.3130  0.0369  0.3709
  183SLPC    HA20894   2.886   3.032   2.433  0.3662  1.2579 -0.4660
  183SLPC    HB20895   3.056   2.979   2.459 -0.9637 -1.5633  1.6952
  183SLPC    C220896   2.976   3.063   2.637  0.4308 -0.3974 -0.0089
  183SLPC    HS20897   2.953   2.963   2.680  0.9476  0.4909  2.5395
  183SLPC   O2120898   2.885   3.161   2.690 -0.0581  0.0482  0.6664
  183SLPC   C2120899   2.764   3.162   2.652 -0.2152 -0.0081 -0.3830
  183SLPC   O2220900   2.703   3.065   2.609  0.4386  0.7186  0.5981
  183SLPC   C2220901   2.698   3.299   2.668  0.3866 -0.2364  0.0466
  183SLPC   H2R20902   2.769   3.369   2.620 -0.0679  0.4873  0.4169
  183SLPC   H2S20903   2.602   3.290   2.612  1.5107 -1.1178 -1.8656
  183SLPC    C320904   3.121   3.086   2.683 -0.1174 -0.2869  0.1074
  183SLPC    HX20905   3.165   3.178   2.639 -0.2671  0.1501  0.8457
  183SLPC    HY20906   3.171   2.990   2.659 -0.1597  0.0770 -1.5806
  183SLPC   O3120907   3.115   3.101   2.822  0.4857  0.3651 -0.7908
  183SLPC   C3120908   3.096   3.221   2.885  0.0869  0.7570  1.4026
  183SLPC   O3220909   3.108   3.328   2.825 -0.2900  0.0361 -0.7491
  183SLPC   C3220910   3.067   3.188   3.032  0.3701 -0.2190 -0.1320
  183SLPC   H2X20911   3.146   3.118   3.069  0.4665  0.1838  0.4306
  183SLPC   H2Y20912   2.964   3.147   3.044  0.8934 -1.5394  0.0118
  183SLPC   C2320913   2.666   3.327   2.821 -0.7788  0.7619  0.4945
  183SLPC   H3R20914   2.629   3.432   2.822 -1.0144  0.6800  0.3197
  183SLPC   H3S20915   2.763   3.311   2.873  0.3597  0.0973 -1.6793
  183SLPC   C2420916   2.553   3.235   2.875  0.1181 -0.3664 -0.4295
  183SLPC   H4R20917   2.597   3.135   2.894  3.1819  1.1541  1.5122
  183SLPC   H4S20918   2.477   3.238   2.794 -1.7293  1.3848  1.2628
  183SLPC   C2520919   2.483   3.282   3.006  0.1874  0.6328 -0.3666
  183SLPC   H5R20920   2.439   3.379   2.974 -0.2304  0.0129 -1.7627
  183SLPC   H5S20921   2.562   3.293   3.083  0.5940  1.0139 -0.8356
  183SLPC   C2620922   2.367   3.189   3.054  0.4197 -0.4240 -0.0064
  183SLPC   H6R20923   2.408   3.095   3.098 -0.5726 -1.5445 -1.3710
  183SLPC   H6S20924   2.311   3.156   2.963 -0.9125  1.7113 -0.0112
  183SLPC   C2720925   2.272   3.262   3.156 -0.2668  0.0406 -0.3714
  183SLPC   H7R20926   2.198   3.192   3.202  0.5191  1.0758  2.6851
  183SLPC   H7S20927   2.215   3.340   3.103 -1.9020 -0.4816  0.5265
  183SLPC   C2820928   2.361   3.328   3.268 -0.3414  0.3156  0.0857
  183SLPC   H8R20929   2.297   3.396   3.328 -0.0767 -0.5955  1.4284
  183SLPC   H8S20930   2.430   3.400   3.218 -0.0450  1.3082  1.8459
  183SLPC   C2920931   2.423   3.208   3.341 -0.1431 -0.0636 -0.8824
  183SLPC   H9R20932   2.490   3.144   3.281  1.0718 -0.3085  0.6688
  183SLPC  C21020933   2.395   3.163   3.461  0.3150 -0.4716  0.2707
  183SLPC  H10R20934   2.464   3.083   3.491 -0.0485 -0.7227  0.4365
  183SLPC  C21120935   2.302   3.228   3.565 -0.4367  0.7255 -1.3219
  183SLPC  H11R20936   2.244   3.319   3.539 -1.2948  0.7081  0.3271
  183SLPC  H11S20937   2.361   3.252   3.656 -1.7615  1.0332 -0.5040
  183SLPC  C21220938   2.197   3.119   3.606  0.5555 -0.0569  0.3605
  183SLPC  H12R20939   2.113   3.111   3.535  0.4496  0.5818  0.4076
  183SLPC  C21320940   2.205   3.043   3.711  0.0201  0.2341  0.2895
  183SLPC  H13R20941   2.114   2.982   3.723  0.5689 -0.2468  2.2750
  183SLPC  C21420942   2.304   3.041   3.827 -0.2715  0.8965 -0.0705
  183SLPC  H14R20943   2.402   3.077   3.790  0.7398 -1.6192 -0.0457
  183SLPC  H14S20944   2.316   2.935   3.859  1.0270  1.1381  0.2948
  183SLPC  C21520945   2.259   3.128   3.946  0.1446 -0.4046 -0.3942
  183SLPC  H15R20946   2.154   3.098   3.969 -0.0124  0.9704  0.8156
  183SLPC  H15S20947   2.252   3.236   3.922 -0.8838  0.0722  1.7575
  183SLPC  C21620948   2.359   3.102   4.056  0.0635  0.1948  0.6301
  183SLPC  H16R20949   2.456   3.150   4.028 -1.5234  1.6634 -2.9444
  183SLPC  H16S20950   2.376   2.993   4.068  3.1691  0.5272  0.2154
  183SLPC  C21720951   2.306   3.157   4.192 -0.7220  0.4117 -0.0952
  183SLPC  H17R20952   2.241   3.076   4.230  0.7750 -0.3456  0.9734
  183SLPC  H17S20953   2.232   3.237   4.173 -0.7111  0.3707 -0.3176
  183SLPC  C21820954   2.421   3.209   4.281  0.0193 -0.0378 -0.4867
  183SLPC  H18R20955   2.478   3.291   4.232  0.8232  1.3546  2.4869
  183SLPC  H18S20956   2.498   3.134   4.308  0.3254  0.6996  0.8287
  183SLPC  H18T20957   2.374   3.249   4.374  2.0389  2.7633 -0.5153
  183SLPC   C3320958   3.075   3.309   3.123 -0.1441 -0.2021  0.2684
  183SLPC   H3X20959   3.027   3.294   3.222 -2.2298  0.5977 -0.5797
  183SLPC   H3Y20960   3.038   3.397   3.067  0.4258 -0.4821 -0.5759
  183SLPC   C3420961   3.226   3.339   3.150 -0.0504  0.1925  1.1463
  183SLPC   H4X20962   3.276   3.330   3.052 -1.2802  0.4710  0.4662
  183SLPC   H4Y20963   3.254   3.255   3.217 -0.3979 -0.6229  0.2906
  183SLPC   C3520964   3.265   3.470   3.214 -0.2836  0.0673 -0.0077
  183SLPC   H5X20965   3.187   3.504   3.285 -0.2101 -0.3105  0.2596
  183SLPC   H5Y20966   3.283   3.535   3.126 -0.0484 -1.2230 -0.9441
  183SLPC   C3620967   3.402   3.474   3.290 -0.8794  0.5645 -0.5460
  183SLPC   H6X20968   3.445   3.575   3.309  0.3509 -0.6657  4.5771
  183SLPC   H6Y20969   3.477   3.415   3.233 -0.8403  0.6881 -0.6217
  183SLPC   C3720970   3.388   3.401   3.430 -0.1100 -0.0692  0.6012
  183SLPC   H7X20971   3.368   3.293   3.409  1.6150 -0.5711  1.3404
  183SLPC   H7Y20972   3.300   3.451   3.474 -0.9121 -3.3285  3.0662
  183SLPC   C3820973   3.507   3.417   3.521  0.2867  0.7749 -0.1497
  183SLPC   H8X20974   3.521   3.525   3.544  2.0201  0.2677  1.3712
  183SLPC   H8Y20975   3.603   3.388   3.473  0.6055 -0.1683  1.0053
  183SLPC   C3920976   3.492   3.342   3.660 -0.4067 -0.4302  0.3694
  183SLPC   H9X20977   3.590   3.364   3.708  0.5078  0.4416 -1.7725
  183SLPC   H9Y20978   3.485   3.231   3.649 -2.5263 -0.1889 -1.4300
  183SLPC  C31020979   3.406   3.402   3.765 -0.0166 -0.4687 -0.2173
  183SLPC  H10X20980   3.302   3.419   3.731  0.2525 -0.3186 -0.9815
  183SLPC  H10Y20981   3.445   3.506   3.777  0.1069 -0.6771  1.4900
  183SLPC  C31120982   3.425   3.340   3.904 -0.4984  0.3728  0.0535
  183SLPC  H11X20983   3.530   3.317   3.930 -1.1979  0.4190  3.3350
  183SLPC  H11Y20984   3.368   3.244   3.897  1.9680 -1.2487  0.9257
  183SLPC  C31220985   3.375   3.436   4.012 -0.1922  0.2861  0.0671
  183SLPC  H12X20986   3.271   3.463   3.984 -0.0854 -0.0165 -0.6360
  183SLPC  H12Y20987   3.437   3.527   3.996 -0.2167  0.4721  0.9783
  183SLPC  C31320988   3.404   3.379   4.153 -0.3820  0.6825  0.1594
  183SLPC  H13X20989   3.514   3.370   4.167 -0.1772  1.0258 -1.0288
  183SLPC  H13Y20990   3.353   3.284   4.177 -0.6284  0.8546  0.3279
  183SLPC  C31420991   3.353   3.492   4.254 -0.0535 -0.8098  0.5942
  183SLPC  H14X20992   3.248   3.516   4.228 -0.1765 -0.7408  1.1444
  183SLPC  H14Y20993   3.415   3.582   4.237 -1.3581 -0.0044  0.0384
  183SLPC  C31520994   3.350   3.452   4.403 -0.2979 -0.7049  0.3017
  183SLPC  H15X20995   3.327   3.344   4.417 -2.1823 -0.8062 -2.7093
  183SLPC  H15Y20996   3.272   3.512   4.455 -0.3707  1.9998 -2.6728
  183SLPC  C31620997   3.481   3.484   4.476 -0.6964 -0.7390 -0.1977
  183SLPC  H16X20998   3.497   3.594   4.477 -1.1348 -0.6469 -1.2288
  183SLPC  H16Y20999   3.570   3.448   4.421  0.8383  0.3606  1.4887
  183SLPC  C31721000   3.502   3.453   4.623 -0.4602  0.0834  0.1479
  183SLPC  H17X21001   3.424   3.497   4.689  0.7405  1.7712  0.5147
  183SLPC  H17Y21002   3.599   3.496   4.658 -1.3974  0.8003  1.9953
  183SLPC  C31821003   3.519   3.297   4.640  0.6941 -0.0624 -0.3536
  183SLPC  H18X21004   3.438   3.244   4.587  1.1178 -0.3076 -0.7568
  183SLPC  H18Y21005   3.512   3.273   4.748  0.5931 -1.3186 -0.6292
  183SLPC  H18Z21006   3.615   3.249   4.611 -0.0568 -2.7137  1.2516
  184SLPC     N21007   3.532   6.088   2.438 -0.3351 -0.4728 -0.5244
  184SLPC   C1321008   3.564   6.233   2.454 -0.5391 -0.1601 -0.3002
  184SLPC  H13A21009   3.647   6.255   2.388 -0.8209 -1.5059 -1.1209
  184SLPC  H13B21010   3.482   6.301   2.434  1.3548  3.2516  2.3020
  184SLPC  H13C21011   3.603   6.247   2.554 -1.1846 -1.5842  0.1675
  184SLPC   C1421012   3.665   6.017   2.456 -0.9863 -0.0499 -0.5426
  184SLPC  H14A21013   3.715   6.045   2.547 -1.4419 -1.5331  0.1861
  184SLPC  H14B21014   3.644   5.911   2.464 -1.1891  0.1460  3.3290
  184SLPC  H14C21015   3.736   6.032   2.375  0.3939 -0.7595  0.4926
  184SLPC   C1521016   3.466   6.060   2.303 -0.3423 -0.1045 -1.1733
  184SLPC  H15A21017   3.523   6.098   2.219 -0.7500  0.2443 -1.2980
  184SLPC  H15B21018   3.466   5.952   2.299  0.0845 -0.2842  1.8071
  184SLPC  H15C21019   3.362   6.088   2.308 -0.9162 -2.2513  2.2871
  184SLPC   C1221020   3.440   6.042   2.547  0.4210 -0.2195 -0.5228
  184SLPC  H12A21021   3.481   6.079   2.640  0.6665  1.9399 -1.4188
  184SLPC  H12B21022   3.437   5.935   2.554 -1.8035 -0.1290  1.2900
  184SLPC   C1121023   3.295   6.097   2.535 -0.1344 -0.1342  0.3972
  184SLPC  H11A21024   3.299   6.203   2.502 -0.3878 -0.1994  0.1469
  184SLPC  H11B21025   3.244   6.093   2.633 -2.1644 -1.9591 -0.6403
  184SLPC     P21026   3.164   5.887   2.469  0.1128 -0.2126 -0.1765
  184SLPC   O1321027   3.023   5.886   2.423 -0.2632 -0.8973  0.1114
  184SLPC   O1421028   3.254   5.798   2.401 -0.4096 -0.0917  0.5836
  184SLPC   O1221029   3.217   6.030   2.433 -0.0125 -0.5657 -0.3214
  184SLPC   O1121030   3.179   5.864   2.627 -0.2779  0.3523  0.1001
  184SLPC    C121031   3.058   5.878   2.706  0.6659  0.3503 -0.0759
  184SLPC    HA21032   2.992   5.954   2.658 -2.3580 -2.2220 -0.3794
  184SLPC    HB21033   3.004   5.781   2.701  0.8930  0.1068  1.5083
  184SLPC    C221034   3.089   5.929   2.846  0.2548 -0.0687 -0.1205
  184SLPC    HS21035   3.143   6.023   2.823  0.6964 -0.8792 -2.6443
  184SLPC   O2121036   3.171   5.832   2.918 -0.1917  0.2234  0.1525
  184SLPC   C2121037   3.253   5.884   3.010 -0.2981 -1.1436 -0.0329
  184SLPC   O2221038   3.260   6.005   3.039 -0.3247  0.0249 -0.1475
  184SLPC   C2221039   3.339   5.774   3.071  0.3752 -0.2552 -0.1063
  184SLPC   H2R21040   3.262   5.719   3.130  0.9403  1.7564  2.7416
  184SLPC   H2S21041   3.366   5.698   2.995  0.3085 -0.2358 -0.1492
  184SLPC    C321042   2.960   5.952   2.934  0.1914  0.7325  1.0485
  184SLPC    HX21043   2.928   5.857   2.982  0.0115 -0.7609 -1.8171
  184SLPC    HY21044   2.879   5.971   2.860  1.6954 -1.3521 -1.2752
  184SLPC   O3121045   2.988   6.050   3.035  0.1852  0.1712 -0.3530
  184SLPC   C3121046   2.880   6.077   3.106  0.0379 -1.0471  0.2157
  184SLPC   O3221047   2.774   6.020   3.111 -0.5731  0.4242  0.3075
  184SLPC   C3221048   2.910   6.215   3.176  0.5060  0.0159  0.3233
  184SLPC   H2X21049   2.804   6.241   3.197  0.6491  0.9526 -0.0313
  184SLPC   H2Y21050   2.957   6.281   3.099 -0.3663 -0.9770 -1.1135
  184SLPC   C2321051   3.466   5.817   3.156  0.1641  0.3969 -0.3788
  184SLPC   H3R21052   3.522   5.899   3.107  0.2981  0.3305 -0.3363
  184SLPC   H3S21053   3.541   5.737   3.170  1.7586  2.1959  2.4332
  184SLPC   C2421054   3.427   5.865   3.296  0.0824  0.1191 -0.5938
  184SLPC   H4R21055   3.346   5.939   3.283  0.2437  0.0837 -1.9412
  184SLPC   H4S21056   3.518   5.906   3.346 -0.7440 -0.5319  1.5324
  184SLPC   C2521057   3.387   5.751   3.399 -0.0019  0.7169 -0.4010
  184SLPC   H5R21058   3.458   5.666   3.411 -1.9346 -0.6934  2.1698
  184SLPC   H5S21059   3.306   5.688   3.356  1.4437 -1.7942  0.3330
  184SLPC   C2621060   3.322   5.794   3.529  0.3122  0.4077 -0.0773
  184SLPC   H6R21061   3.235   5.860   3.509 -0.8842 -1.1991 -0.4804
  184SLPC   H6S21062   3.389   5.851   3.596  2.6056 -0.7152 -1.3094
  184SLPC   C2721063   3.272   5.675   3.607 -0.2641 -0.0349  0.1194
  184SLPC   H7R21064   3.355   5.605   3.628  0.6334  1.1351  0.5635
  184SLPC   H7S21065   3.185   5.628   3.557 -1.6275  1.6951  0.7149
  184SLPC   C2821066   3.210   5.725   3.739  0.1815  0.3818 -0.2248
  184SLPC   H8R21067   3.110   5.772   3.721 -0.5994 -1.0110  0.3071
  184SLPC   H8S21068   3.281   5.797   3.784 -0.5358  1.7625 -1.2159
  184SLPC   C2921069   3.198   5.611   3.830  0.1891  0.0495 -0.1204
  184SLPC   H9R21070   3.293   5.567   3.863  1.9923  3.0005 -1.0695
  184SLPC  C21021071   3.075   5.547   3.854 -0.1252  0.9665 -0.7016
  184SLPC  H10R21072   3.074   5.476   3.938  1.3974  2.0138  0.2229
  184SLPC  C21121073   2.940   5.581   3.801  1.0348 -0.4029 -0.1168
  184SLPC  H11R21074   2.871   5.494   3.798  1.1586 -0.6216  1.8811
  184SLPC  H11S21075   2.964   5.605   3.695  0.5113  1.3211  0.1146
  184SLPC  C21221076   2.856   5.691   3.869  0.9011 -0.6881  0.5590
  184SLPC  H12R21077   2.830   5.771   3.798  1.4969 -1.3612 -0.4529
  184SLPC  C21321078   2.809   5.700   3.994 -0.4305 -0.1318 -0.0288
  184SLPC  H13R21079   2.748   5.786   4.024 -3.6607 -1.7970 -1.3675
  184SLPC  C21421080   2.823   5.593   4.093  0.4359  0.7439 -0.4794
  184SLPC  H14R21081   2.875   5.500   4.062  0.1710  1.1378 -2.2436
  184SLPC  H14S21082   2.717   5.574   4.120  0.6500  3.0951  2.5072
  184SLPC  C21521083   2.880   5.634   4.233 -0.1614 -0.0404 -0.1677
  184SLPC  H15R21084   2.828   5.726   4.266 -1.5932 -0.3134 -1.5326
  184SLPC  H15S21085   2.986   5.662   4.214 -0.8253  3.3147  0.4329
  184SLPC  C21621086   2.862   5.528   4.337 -0.1832  0.3144 -0.7211
  184SLPC  H16R21087   2.892   5.430   4.293  0.6056 -0.0251  0.5227
  184SLPC  H16S21088   2.754   5.525   4.363  0.1246  0.3767  0.6673
  184SLPC  C21721089   2.929   5.549   4.468 -0.8707  0.0826 -0.1144
  184SLPC  H17R21090   2.885   5.639   4.517 -0.1222 -0.6139  1.9690
  184SLPC  H17S21091   3.039   5.559   4.452 -0.8243 -0.8682 -0.4117
  184SLPC  C21821092   2.911   5.433   4.569  0.4931  0.0724  0.1617
  184SLPC  H18R21093   2.961   5.455   4.665 -0.5764  0.7262  0.5792
  184SLPC  H18S21094   2.966   5.348   4.522  0.1720  0.7650 -1.5542
  184SLPC  H18T21095   2.804   5.406   4.581  1.0909 -2.8069 -0.0776
  184SLPC   C3321096   3.001   6.207   3.301  0.4808 -0.1650 -0.2537
  184SLPC   H3X21097   3.034   6.306   3.341 -0.5837 -0.0825  0.4607
  184SLPC   H3Y21098   3.101   6.168   3.271  0.7950  0.1777  0.3248
  184SLPC   C3421099   2.938   6.134   3.429  0.0850 -0.5075 -0.0927
  184SLPC   H4X21100   2.900   6.039   3.385 -0.1352 -1.3116  1.7445
  184SLPC   H4Y21101   2.865   6.207   3.471  0.6670  0.2197 -0.3213
  184SLPC   C3521102   3.048   6.128   3.534  0.0956 -0.2026 -0.0817
  184SLPC   H5X21103   3.080   6.229   3.567 -1.7367 -0.5265  3.1592
  184SLPC   H5Y21104   3.128   6.060   3.501 -0.4223 -0.5079 -0.7260
  184SLPC   C3621105   2.989   6.056   3.659 -0.0325  0.7192 -0.4111
  184SLPC   H6X21106   2.962   5.951   3.635  0.1478 -0.2108  3.0540
  184SLPC   H6Y21107   2.893   6.100   3.692  0.4756  1.0886  0.6181
  184SLPC   C3721108   3.085   6.063   3.781 -0.4631 -0.7056 -0.7487
  184SLPC   H7X21109   3.116   6.169   3.801 -1.2299 -0.8300  1.4464
  184SLPC   H7Y21110   3.175   6.001   3.763 -1.4303 -1.3574 -3.9724
  184SLPC   C3821111   3.035   6.019   3.912 -0.3285  0.4677  0.5667
  184SLPC   H8X21112   3.025   5.909   3.914  1.9548  0.2095  0.3416
  184SLPC   H8Y21113   2.931   6.058   3.918  0.3481  2.7233 -0.8652
  184SLPC   C3921114   3.106   6.070   4.037  0.4634 -0.6299  0.3744
  184SLPC   H9X21115   3.076   6.171   4.072  0.1216  0.1177 -1.9421
  184SLPC   H9Y21116   3.210   6.079   3.999  0.1794  0.0968 -0.2462
  184SLPC  C31021117   3.100   5.965   4.148 -0.4066  0.1731 -0.0263
  184SLPC  H10X21118   3.143   5.874   4.102  0.4704 -0.2247  1.4896
  184SLPC  H10Y21119   2.991   5.943   4.157 -0.7173  1.0544 -1.4106
  184SLPC  C31121120   3.175   6.005   4.274 -0.0130 -0.5904  0.0289
  184SLPC  H11X21121   3.160   6.114   4.292  1.0304 -0.4979  0.3689
  184SLPC  H11Y21122   3.283   5.992   4.255  0.2076  1.3955 -0.3420
  184SLPC  C31221123   3.136   5.915   4.389  0.1843  0.3090  0.4493
  184SLPC  H12X21124   3.152   5.811   4.352  0.0855 -0.1446  1.6509
  184SLPC  H12Y21125   3.029   5.919   4.417 -0.6705 -0.4566 -2.3588
  184SLPC  C31321126   3.232   5.920   4.503  0.1164 -0.6484 -0.1548
  184SLPC  H13X21127   3.213   6.016   4.554  1.3382 -1.1078  1.2510
  184SLPC  H13Y21128   3.338   5.923   4.470  0.5170  2.5741  1.1155
  184SLPC  C31421129   3.210   5.799   4.598 -0.2530  0.8478  0.3974
  184SLPC  H14X21130   3.210   5.699   4.549  0.6860  0.9218  0.2241
  184SLPC  H14Y21131   3.109   5.817   4.639 -0.1712 -2.6832  2.5173
  184SLPC  C31521132   3.316   5.807   4.711  0.3513 -0.0546  0.2190
  184SLPC  H15X21133   3.300   5.913   4.740  0.5925 -0.2947  1.2666
  184SLPC  H15Y21134   3.410   5.786   4.655 -0.1125  0.5548 -0.8230
  184SLPC  C31621135   3.288   5.725   4.835  0.4610 -0.0479  0.4463
  184SLPC  H16X21136   3.283   5.616   4.814 -2.0886 -0.2064  1.4761
  184SLPC  H16Y21137   3.191   5.763   4.875  0.1095 -0.0152 -0.4192
  184SLPC  C31721138   3.383   5.750   4.953  0.2822 -0.2377  0.0313
  184SLPC  H17X21139   3.397   5.859   4.968  0.1535 -0.2833  0.5116
  184SLPC  H17Y21140   3.486   5.714   4.931  1.0750  1.7267  0.2867
  184SLPC  C31821141   3.331   5.689   5.090 -0.3838 -0.3422  0.2065
  184SLPC  H18X21142   3.232   5.733   5.111  0.5080  1.9898 -0.1931
  184SLPC  H18Y21143   3.404   5.714   5.169  0.3285  1.6145 -0.9917
  184SLPC  H18Z21144   3.325   5.580   5.071 -1.2968  0.1802 -3.2629
  185POPC     N21145   2.212   5.683   7.467  0.2230  0.3775  0.0839
  185POPC   C1221146   2.124   5.764   7.378 -0.0107  0.4759  0.2516
  185POPC  H12A21147   2.182   5.841   7.330  1.0259  0.4466  1.4149
  185POPC  H12B21148   2.051   5.819   7.436  0.1276  2.0584 -1.0140
  185POPC   C1321149   2.124   5.595   7.554 -0.5111 -0.3249  0.6035
  185POPC  H13A21150   2.062   5.529   7.495  0.2190 -0.6841  0.2326
  185POPC  H13B21151   2.185   5.533   7.618  0.1820  0.5307  0.7849
  185POPC  H13C21152   2.060   5.648   7.624  0.0657  2.2226 -0.6592
  185POPC   C1421153   2.305   5.595   7.382  0.1121  0.4675  0.0211
  185POPC  H14A21154   2.247   5.545   7.306  1.8465 -0.9315 -0.4568
  185POPC  H14B21155   2.366   5.662   7.323  0.4743  1.2247  1.2307
  185POPC  H14C21156   2.359   5.535   7.454 -0.1498  2.4713  2.0192
  185POPC   C1521157   2.284   5.775   7.551  0.3414 -0.0648 -0.6384
  185POPC  H15A21158   2.208   5.834   7.599 -1.4011 -0.7291 -2.4342
  185POPC  H15B21159   2.349   5.843   7.498  0.4281  0.5552  0.2313
  185POPC  H15C21160   2.342   5.729   7.629 -1.8710  1.9526  2.4345
  185POPC   C1121161   2.060   5.681   7.260  0.6555  0.4909  0.8685
  185POPC  H11A21162   1.971   5.731   7.216  0.0019  0.0962  1.7337
  185POPC  H11B21163   2.024   5.589   7.310 -0.3129 -0.2289 -1.0354
  185POPC     P21164   2.217   5.748   7.065  0.5686 -0.0677 -0.0485
  185POPC   O1321165   2.331   5.684   6.990 -0.3809 -0.6925 -0.0369
  185POPC   O1421166   2.251   5.862   7.152 -0.2219 -0.0975 -0.1226
  185POPC   O1221167   2.154   5.643   7.153  0.4857 -0.0769 -0.6742
  185POPC   O1121168   2.105   5.804   6.972 -0.3240  0.3646  0.4876
  185POPC    C121169   2.082   5.761   6.838 -0.1434  0.2411  0.1451
  185POPC    HA21170   1.975   5.753   6.810  0.1286  1.6239 -1.4295
  185POPC    HB21171   2.123   5.660   6.818 -1.3562 -0.3619  0.6815
  185POPC    C221172   2.165   5.829   6.723 -0.3719 -0.3148  0.2652
  185POPC    HS21173   2.268   5.828   6.764 -0.2492 -2.3610  0.0394
  185POPC   O2121174   2.110   5.957   6.708  0.1930  0.7031 -0.3752
  185POPC   C2121175   2.190   6.058   6.712  0.2641  0.2680  0.6254
  185POPC   O2221176   2.311   6.049   6.738 -0.5411 -0.0008 -0.5121
  185POPC   C2221177   2.114   6.188   6.688  0.2046  0.3290 -0.5368
  185POPC   H2R21178   2.062   6.205   6.785  1.2888  1.4284 -0.1292
  185POPC   H2S21179   2.044   6.163   6.606  0.5118 -2.6684 -0.0135
  185POPC    C321180   2.160   5.754   6.585  0.2074 -0.2442  0.0094
  185POPC    HX21181   2.053   5.726   6.588  0.3487 -0.6926  2.1757
  185POPC    HY21182   2.217   5.659   6.570 -0.6121 -1.1885  2.4238
  185POPC   O3121183   2.190   5.844   6.469 -0.0451 -0.0258 -0.8276
  185POPC   C3121184   2.317   5.845   6.434 -0.4288  0.0725 -0.3663
  185POPC   O3221185   2.402   5.785   6.497 -0.3913 -0.0855  0.8219
  185POPC   C3221186   2.339   5.903   6.293  0.5937 -0.0840  0.2600
  185POPC   H2X21187   2.317   6.011   6.308  1.0923  0.0892 -0.2077
  185POPC   H2Y21188   2.252   5.863   6.236 -0.2749  2.8475 -0.6549
  185POPC   C2321189   2.198   6.308   6.657 -0.5551  0.0293  0.0607
  185POPC   H3R21190   2.266   6.326   6.743 -0.2192  1.1262 -0.4075
  185POPC   H3S21191   2.129   6.395   6.659  0.3475  0.7735 -0.4293
  185POPC   C2421192   2.269   6.300   6.524 -0.0161 -0.0030  0.4916
  185POPC   H4R21193   2.344   6.218   6.535 -0.1848  0.0311  2.1100
  185POPC   H4S21194   2.319   6.398   6.505  0.3142 -0.5546 -1.7827
  185POPC   C2521195   2.173   6.274   6.409 -0.1004  0.2162  0.2054
  185POPC   H5R21196   2.089   6.346   6.420 -2.8009 -2.9643  2.2009
  185POPC   H5S21197   2.152   6.165   6.404  1.7755 -0.1457 -1.1269
  185POPC   C2621198   2.230   6.300   6.275 -0.2613 -0.9859  0.0128
  185POPC   H6R21199   2.339   6.281   6.272 -0.3124 -1.3429  0.3952
  185POPC   H6S21200   2.227   6.407   6.244 -0.9815 -1.4847 -1.7835
  185POPC   C2721201   2.152   6.231   6.159  0.0977  0.1530 -0.5011
  185POPC   H7R21202   2.046   6.263   6.166  0.2518  1.2264 -2.4216
  185POPC   H7S21203   2.161   6.123   6.184  2.5830  0.4506  0.2356
  185POPC   C2821204   2.216   6.264   6.015  0.2567  1.7779  0.0313
  185POPC   H8R21205   2.325   6.252   6.036 -0.3179 -1.0735  1.7939
  185POPC   H8S21206   2.196   6.370   5.986 -0.7180  0.9653 -2.6000
  185POPC   C2921207   2.163   6.162   5.914 -0.1353  0.1724 -0.4408
  185POPC   H9121208   2.152   6.058   5.950 -0.2714  0.1510 -0.5426
  185POPC  C21021209   2.134   6.189   5.787  0.8277 -0.1788  0.0524
  185POPC  H10121210   2.090   6.118   5.716  2.5784  1.2004 -2.5738
  185POPC  C21121211   2.150   6.329   5.729 -0.2311  0.2479  0.2685
  185POPC  H11R21212   2.103   6.399   5.801 -1.2201  0.1592 -0.2766
  185POPC  H11S21213   2.095   6.340   5.633 -0.1280  0.4512  0.2318
  185POPC  C21221214   2.298   6.361   5.706 -0.7600 -0.3906  0.1626
  185POPC  H12R21215   2.351   6.345   5.802 -1.4210 -0.8749  0.4487
  185POPC  H12S21216   2.314   6.466   5.673  1.1246 -0.4206  0.8269
  185POPC  C21321217   2.370   6.274   5.599 -0.6530  0.9701 -0.2171
  185POPC  H13R21218   2.359   6.166   5.619 -0.2039  1.3613  2.6431
  185POPC  H13S21219   2.480   6.288   5.606 -0.8496  2.8905 -0.4259
  185POPC  C21421220   2.327   6.306   5.454  0.2618  0.9546 -0.9701
  185POPC  H14R21221   2.350   6.412   5.428  0.3334  1.2200  0.1440
  185POPC  H14S21222   2.216   6.304   5.445 -0.0963 -0.2676  2.5399
  185POPC  C21521223   2.399   6.215   5.349  0.5060  0.5431  0.8618
  185POPC  H15R21224   2.334   6.125   5.348 -1.0295  1.6136  0.5177
  185POPC  H15S21225   2.501   6.197   5.388  0.9584  3.8118  1.4923
  185POPC  C21621226   2.408   6.269   5.210 -0.7200 -0.1560 -0.1119
  185POPC  H16R21227   2.448   6.183   5.154 -0.8252 -0.3397  0.0895
  185POPC  H16S21228   2.471   6.360   5.204 -0.1300 -0.6223 -1.1232
  185POPC  C21721229   2.272   6.304   5.138 -0.4119 -0.3560 -0.0136
  185POPC  H17R21230   2.298   6.313   5.031 -1.3220 -1.8781 -0.3982
  185POPC  H17S21231   2.228   6.400   5.174 -0.5298 -1.4730  3.1987
  185POPC  C21821232   2.170   6.189   5.153  0.4898  0.6590 -0.3144
  185POPC  H18R21233   2.124   6.185   5.254 -0.9000 -1.7776 -0.9753
  185POPC  H18S21234   2.225   6.093   5.140  1.2006 -0.0247  5.2211
  185POPC  H18T21235   2.095   6.203   5.073  0.9565 -0.0815 -0.8942
  185POPC   C3321236   2.480   5.880   6.227 -0.0268 -0.1944  0.7583
  185POPC   H3X21237   2.506   5.772   6.240  3.0104  0.2342 -0.9872
  185POPC   H3Y21238   2.560   5.940   6.275  1.0620  0.8187 -2.0987
  185POPC   C3421239   2.479   5.909   6.073  0.4237 -0.2767  0.2789
  185POPC   H4X21240   2.452   6.015   6.052 -0.1060 -0.5341 -0.3887
  185POPC   H4Y21241   2.400   5.845   6.028  0.9349 -0.5295 -0.2666
  185POPC   C3521242   2.617   5.871   6.011 -0.4237 -1.0335  0.1817
  185POPC   H5X21243   2.628   5.761   6.023 -0.1325 -0.7795  2.6153
  185POPC   H5Y21244   2.698   5.918   6.070 -1.1011 -0.5981  0.7725
  185POPC   C3621245   2.622   5.904   5.858 -0.1718  0.0052  0.0506
  185POPC   H6X21246   2.707   5.850   5.812  0.0077  0.7424 -0.5099
  185POPC   H6Y21247   2.647   6.012   5.848  1.6306 -0.4511 -0.8519
  185POPC   C3721248   2.496   5.885   5.778  0.2131  0.4627  0.6379
  185POPC   H7X21249   2.417   5.958   5.806 -0.8502 -1.0541  1.7048
  185POPC   H7Y21250   2.453   5.785   5.795 -1.9494  0.6634 -2.6324
  185POPC   C3821251   2.495   5.903   5.622 -0.2339 -0.0902 -0.3782
  185POPC   H8X21252   2.576   5.975   5.599 -0.3027  0.1562  0.1508
  185POPC   H8Y21253   2.402   5.952   5.586  0.3337  2.7095  1.6036
  185POPC   C3921254   2.530   5.767   5.557 -0.8292 -0.2160 -0.1876
  185POPC   H9X21255   2.455   5.689   5.581 -0.5005 -0.1060  1.3409
  185POPC   H9Y21256   2.621   5.731   5.611  0.2539  2.1543 -0.2956
  185POPC  C31021257   2.570   5.772   5.403  0.3585  0.2722 -0.7386
  185POPC  H10X21258   2.632   5.683   5.380  0.8829  0.3047  0.4931
  185POPC  H10Y21259   2.648   5.847   5.375  2.1967 -1.5660 -0.7155
  185POPC  C31121260   2.449   5.797   5.311  0.4945  0.7065  0.4148
  185POPC  H11X21261   2.414   5.902   5.307 -1.3561  0.0968 -1.2838
  185POPC  H11Y21262   2.366   5.732   5.346 -1.1499  2.3889 -0.2227
  185POPC  C31221263   2.485   5.764   5.167 -0.1219 -0.0549  0.2459
  185POPC  H12X21264   2.510   5.656   5.157  0.1050 -0.0412  0.6198
  185POPC  H12Y21265   2.567   5.835   5.145 -1.4667  1.0366 -1.4038
  185POPC  C31321266   2.370   5.789   5.069  0.1599 -0.2925  0.8144
  185POPC  H13X21267   2.278   5.825   5.121  1.3637  1.9094  1.5299
  185POPC  H13Y21268   2.358   5.700   5.004  3.6999 -0.5310  0.3201
  185POPC  C31421269   2.393   5.911   4.985  0.2923 -0.0339  0.6546
  185POPC  H14X21270   2.493   5.920   4.939 -0.4601  0.9545 -0.8708
  185POPC  H14Y21271   2.389   6.003   5.047 -0.1474  1.0611 -0.9485
  185POPC  C31521272   2.296   5.940   4.869  0.2559 -0.0383  0.2147
  185POPC  H15X21273   2.200   5.963   4.920  0.1051 -0.1350 -0.0255
  185POPC  H15Y21274   2.292   5.851   4.803 -0.2509 -1.0952  1.6115
  185POPC  C31621275   2.342   6.057   4.781  0.3604  0.1691 -0.1521
  185POPC  H16X21276   2.447   6.046   4.748  0.2581 -1.2221 -0.0402
  185POPC  H16Y21277   2.338   6.155   4.834 -0.2460 -0.1361  0.3760
  185POPC  H16Z21278   2.276   6.071   4.692  1.3102  1.0922 -0.7333
  186POPC     N21279   5.226   6.526   7.072 -0.0903 -0.0789 -0.3805
  186POPC   C1221280   5.311   6.601   6.970 -1.1890  0.0953 -0.6071
  186POPC  H12A21281   5.322   6.702   7.005 -0.8184 -0.1796  0.0780
  186POPC  H12B21282   5.259   6.611   6.875 -0.4862 -2.2706 -1.3118
  186POPC   C1321283   5.090   6.586   7.067  0.4427  0.2974 -1.0083
  186POPC  H13A21284   5.092   6.694   7.070  0.8338  0.2757  0.7850
  186POPC  H13B21285   5.035   6.554   6.980 -2.6088 -1.5174  1.3701
  186POPC  H13C21286   5.023   6.547   7.143  1.3784 -0.1195 -0.3760
  186POPC   C1421287   5.213   6.386   7.039  0.2822  0.0442  0.2576
  186POPC  H14A21288   5.145   6.325   7.098  0.1481 -2.6070 -2.3591
  186POPC  H14B21289   5.187   6.374   6.935  1.0130  0.5274  0.0153
  186POPC  H14C21290   5.305   6.332   7.055  0.2459  0.3254  1.4640
  186POPC   C1521291   5.287   6.539   7.208 -0.1433 -0.2265 -0.4696
  186POPC  H15A21292   5.264   6.630   7.262 -0.9727 -1.0364  0.6039
  186POPC  H15B21293   5.394   6.535   7.197  0.1840  1.8365  1.2571
  186POPC  H15C21294   5.254   6.455   7.268 -3.8042  1.9236  0.8733
  186POPC   C1121295   5.455   6.541   6.949  0.4079 -0.1192 -0.6601
  186POPC  H11A21296   5.508   6.604   6.874  0.2829  0.1856 -0.4967
  186POPC  H11B21297   5.448   6.438   6.910 -0.2666  0.0953 -1.1197
  186POPC     P21298   5.631   6.673   7.090 -0.3419 -0.0575  0.2854
  186POPC   O1321299   5.736   6.653   7.194  0.0263 -0.6107  0.2078
  186POPC   O1421300   5.544   6.787   7.120 -0.2435  0.1839 -0.3926
  186POPC   O1221301   5.539   6.544   7.069  0.1428  0.1735 -0.1454
  186POPC   O1121302   5.712   6.692   6.955  0.1602  0.1660  0.4151
  186POPC    C121303   5.797   6.586   6.910 -0.2758 -0.6715 -0.5142
  186POPC    HA21304   5.739   6.496   6.879 -1.0161 -0.4394  0.1660
  186POPC    HB21305   5.868   6.550   6.988 -1.4549 -1.9263  0.0329
  186POPC    C221306   5.872   6.627   6.772  0.1262 -0.9223 -0.8716
  186POPC    HS21307   5.914   6.532   6.731  1.1517 -0.4350 -0.9920
  186POPC   O2121308   5.968   6.726   6.804  0.3733 -0.0390  0.3325
  186POPC   C2121309   6.095   6.699   6.813  0.1078  0.5647 -0.0816
  186POPC   O2221310   6.146   6.585   6.803  0.2519  0.1181 -0.0838
  186POPC   C2221311   6.180   6.833   6.818 -0.0556  0.1789 -0.5463
  186POPC   H2R21312   6.198   6.847   6.926  2.1362 -2.0362 -0.5339
  186POPC   H2S21313   6.137   6.920   6.764  3.5414  2.7174  0.3290
  186POPC    C321314   5.774   6.689   6.662  0.4046 -0.0880 -0.6156
  186POPC    HX21315   5.732   6.780   6.710 -0.2386 -0.1217 -1.1039
  186POPC    HY21316   5.692   6.615   6.651  1.1503 -0.9293 -0.7328
  186POPC   O3121317   5.837   6.701   6.532  0.5317 -0.5765  0.1185
  186POPC   C3121318   5.805   6.814   6.472 -0.5247  0.2009 -0.0433
  186POPC   O3221319   5.737   6.909   6.509  0.3797 -0.0395  0.6917
  186POPC   C3221320   5.855   6.801   6.323 -0.1126 -0.8045 -0.4070
  186POPC   H2X21321   5.768   6.821   6.257  0.8459 -0.2713 -1.5506
  186POPC   H2Y21322   5.903   6.703   6.302 -1.6734 -1.3354 -1.6869
  186POPC   C2321323   6.326   6.829   6.760 -0.4989  0.2557  0.3631
  186POPC   H3R21324   6.384   6.766   6.832  2.6906  2.4770 -0.0463
  186POPC   H3S21325   6.381   6.924   6.772 -0.0674  0.4258 -2.4385
  186POPC   C2421326   6.337   6.801   6.607 -0.4158  0.9773  0.1354
  186POPC   H4R21327   6.302   6.696   6.596 -0.4770  1.1984 -2.2250
  186POPC   H4S21328   6.441   6.801   6.569 -0.6824  1.3404 -0.6060
  186POPC   C2521329   6.248   6.895   6.531 -0.0333 -0.4811  0.1846
  186POPC   H5R21330   6.143   6.903   6.568 -0.6781 -1.4904 -1.3289
  186POPC   H5S21331   6.233   6.858   6.427  1.4867  3.4201 -1.6387
  186POPC   C2621332   6.304   7.039   6.517  0.1635 -0.4050  0.2542
  186POPC   H6R21333   6.397   7.055   6.458  0.2316 -0.4568  0.3474
  186POPC   H6S21334   6.331   7.079   6.618 -0.1795 -0.3026  0.3098
  186POPC   C2721335   6.192   7.131   6.461 -0.7083  0.2960  0.2132
  186POPC   H7R21336   6.107   7.116   6.531 -0.1268 -0.0557  0.8595
  186POPC   H7S21337   6.180   7.092   6.358 -0.0934 -0.5888  0.4650
  186POPC   C2821338   6.208   7.277   6.445  0.0890 -0.3444 -0.3621
  186POPC   H8R21339   6.202   7.324   6.546 -2.4516  2.4864 -1.6676
  186POPC   H8S21340   6.124   7.311   6.381  0.8395  2.4879  0.0048
  186POPC   C2921341   6.344   7.308   6.373  0.3411  0.1492 -0.5307
  186POPC   H9121342   6.427   7.307   6.445 -1.0318  0.7720  1.1118
  186POPC  C21021343   6.361   7.342   6.245  0.3349  0.3687  0.8880
  186POPC  H10121344   6.457   7.364   6.194 -0.0525 -0.0389 -0.0361
  186POPC  C21121345   6.254   7.320   6.140  0.1648  0.1062 -0.0844
  186POPC  H11R21346   6.173   7.250   6.172  2.5991 -1.6506  2.7534
  186POPC  H11S21347   6.308   7.276   6.053  1.8923  0.8956  0.5412
  186POPC  C21221348   6.167   7.444   6.095 -0.1925  0.3044 -0.2090
  186POPC  H12R21349   6.233   7.525   6.057 -0.3773  1.1389  1.1680
  186POPC  H12S21350   6.120   7.486   6.187 -0.6215  1.8216 -1.0790
  186POPC  C21321351   6.060   7.405   5.991 -0.4166 -0.3291 -0.0723
  186POPC  H13R21352   5.989   7.490   5.989 -0.2323 -0.1130  1.3579
  186POPC  H13S21353   6.003   7.314   6.020 -0.6870 -0.6541 -1.5396
  186POPC  C21421354   6.121   7.374   5.844  0.8808 -0.0735 -0.0562
  186POPC  H14R21355   6.201   7.302   5.871  0.2514 -0.6868  0.2281
  186POPC  H14S21356   6.167   7.470   5.814  0.7141  0.7946  2.2039
  186POPC  C21521357   6.026   7.309   5.748 -0.2021  0.3612  0.6250
  186POPC  H15R21358   5.962   7.390   5.704 -1.3185 -1.4004 -1.1840
  186POPC  H15S21359   5.958   7.231   5.788  0.3236 -0.3962  0.0676
  186POPC  C21621360   6.105   7.246   5.635  0.8338  0.4968 -0.5694
  186POPC  H16R21361   6.162   7.158   5.671  1.3030  1.2261  0.5545
  186POPC  H16S21362   6.186   7.317   5.606  1.6687 -0.5159 -0.7801
  186POPC  C21721363   6.019   7.221   5.519  0.0763 -0.2630 -0.1533
  186POPC  H17R21364   6.080   7.200   5.429 -0.5408  0.1292 -0.6719
  186POPC  H17S21365   5.971   7.315   5.485  1.4795  0.3535 -0.4797
  186POPC  C21821366   5.930   7.103   5.537 -0.7418  1.4117 -0.1159
  186POPC  H18R21367   5.865   7.091   5.448 -2.3855  2.6768  0.8561
  186POPC  H18S21368   5.862   7.124   5.623 -0.3482 -2.5731  1.4056
  186POPC  H18T21369   5.976   7.003   5.555  0.1466  1.5763 -1.3825
  186POPC   C3321370   5.951   6.920   6.299 -0.1499  0.1009  0.6255
  186POPC   H3X21371   6.045   6.904   6.356  0.4745  1.0836 -0.1039
  186POPC   H3Y21372   5.904   7.014   6.335 -0.7577  0.7152 -1.6121
  186POPC   C3421373   5.972   6.952   6.148 -0.0551  0.2035 -0.9160
  186POPC   H4X21374   6.013   7.055   6.138  1.1316  0.0196  1.3631
  186POPC   H4Y21375   5.870   6.952   6.103 -0.0089  1.0551 -1.0401
  186POPC   C3521376   6.069   6.855   6.078  0.4345 -0.2792  0.3592
  186POPC   H5X21377   6.067   6.862   5.967  3.1578  0.1423  0.2589
  186POPC   H5Y21378   6.029   6.753   6.095 -1.5804  0.0335 -2.0283
  186POPC   C3621379   6.214   6.869   6.120 -0.1724  0.7182  0.5252
  186POPC   H6X21380   6.216   6.851   6.230  0.0347 -0.8488  0.2986
  186POPC   H6Y21381   6.259   6.967   6.094  1.5371 -0.5398 -1.6831
  186POPC   C3721382   6.305   6.765   6.051 -0.5529  0.0215 -0.1159
  186POPC   H7X21383   6.317   6.792   5.943  1.4326  0.6131  0.2011
  186POPC   H7Y21384   6.259   6.665   6.051  3.6996 -2.2955 -3.3396
  186POPC   C3821385   6.446   6.764   6.115 -0.9011  0.5858 -0.1644
  186POPC   H8X21386   6.429   6.756   6.225 -1.2406 -0.3392 -0.2703
  186POPC   H8Y21387   6.486   6.866   6.097 -1.4708  0.4700 -2.3284
  186POPC   C3921388   6.530   6.649   6.066  0.0227  0.1353 -0.0799
  186POPC   H9X21389   6.526   6.648   5.955  2.8076  1.7413 -0.2907
  186POPC   H9Y21390   6.492   6.554   6.109 -0.5528 -0.5666 -2.0300
  186POPC  C31021391   6.674   6.659   6.115 -0.2823  0.3811  0.3562
  186POPC  H10X21392   6.724   6.756   6.092  1.7355 -0.7215 -0.1722
  186POPC  H10Y21393   6.727   6.569   6.077 -0.6734  1.0258 -1.8862
  186POPC  C31121394   6.689   6.647   6.268  0.4723 -0.9114  0.0871
  186POPC  H11X21395   6.632   6.568   6.321 -2.7644  0.0624 -1.6598
  186POPC  H11Y21396   6.639   6.734   6.316 -0.4493 -1.2707 -0.1910
  186POPC  C31221397   6.827   6.638   6.314 -0.5228 -0.7773  0.4802
  186POPC  H12X21398   6.893   6.711   6.262 -3.0885  0.3330 -1.4742
  186POPC  H12Y21399   6.870   6.540   6.284  0.2953 -0.2381 -0.1488
  186POPC  C31321400   6.869   6.650   6.461  0.0841  0.0942  0.2128
  186POPC  H13X21401   6.845   6.559   6.520  0.6443 -0.2800 -0.1188
  186POPC  H13Y21402   6.826   6.732   6.523  1.5411  0.7003  0.4722
  186POPC  C31421403   7.018   6.670   6.464 -0.2607 -0.7724  0.3053
  186POPC  H14X21404   7.054   6.761   6.517 -0.3605 -0.9207  0.6330
  186POPC  H14Y21405   7.056   6.691   6.362 -2.2017  0.1900 -0.2817
  186POPC  C31521406   7.093   6.553   6.529  0.2699  0.8598  0.1649
  186POPC  H15X21407   7.062   6.453   6.490 -0.3530  2.1937 -3.0760
  186POPC  H15Y21408   7.066   6.558   6.637  1.6002 -2.4868  0.7952
  186POPC  C31621409   7.243   6.595   6.532  0.2363  0.0243  0.6441
  186POPC  H16X21410   7.313   6.519   6.572 -0.9014 -1.1891  0.4139
  186POPC  H16Y21411   7.261   6.690   6.586  1.9484  0.6448 -0.9205
  186POPC  H16Z21412   7.286   6.603   6.430  0.9002  3.1084  1.0676
  187POPC     N21413   2.293   0.778   2.800 -0.3588 -0.1793  0.1698
  187POPC   C1221414   2.217   0.897   2.762 -0.3013 -0.2302 -0.0989
  187POPC  H12A21415   2.112   0.878   2.779 -0.5340 -1.2824 -2.3064
  187POPC  H12B21416   2.232   0.930   2.660 -2.5595  0.4428 -0.2613
  187POPC   C1321417   2.295   0.748   2.949  0.4527 -0.6168  1.0197
  187POPC  H13A21418   2.366   0.814   2.998  0.0377  0.7080 -0.0855
  187POPC  H13B21419   2.200   0.741   3.001 -0.3349 -2.0519 -0.5436
  187POPC  H13C21420   2.334   0.649   2.966  2.4538 -0.2844 -1.1594
  187POPC   C1421421   2.235   0.653   2.750 -0.6230  0.3846  0.0425
  187POPC  H14A21422   2.288   0.563   2.778  3.1827  2.0399 -1.0907
  187POPC  H14B21423   2.135   0.639   2.787 -0.8677 -0.2137 -0.8014
  187POPC  H14C21424   2.224   0.655   2.642 -1.8312  2.6166  0.1521
  187POPC   C1521425   2.428   0.796   2.744 -0.4805  0.8472  0.1916
  187POPC  H15A21426   2.480   0.871   2.802  0.2211 -0.6282  1.5416
  187POPC  H15B21427   2.425   0.843   2.647  1.7015 -0.9926 -0.8463
  187POPC  H15C21428   2.484   0.704   2.744 -1.1522  0.4269  0.9767
  187POPC   C1121429   2.230   1.030   2.836 -0.8328 -0.0918 -0.9879
  187POPC  H11A21430   2.200   1.013   2.942  0.2966 -1.0788 -0.8105
  187POPC  H11B21431   2.150   1.103   2.810 -0.4451  1.3834  1.5986
  187POPC     P21432   2.401   1.173   2.701  0.3928 -0.1357  0.0123
  187POPC   O1321433   2.402   1.085   2.583 -0.3586  0.0409  0.1059
  187POPC   O1421434   2.525   1.254   2.716  0.3541 -0.2026 -0.1330
  187POPC   O1221435   2.361   1.087   2.833 -0.0119 -0.1750  0.2015
  187POPC   O1121436   2.282   1.274   2.693 -0.5401  0.0584  0.1238
  187POPC    C121437   2.288   1.389   2.777  0.1390  0.2725 -0.0831
  187POPC    HA21438   2.195   1.444   2.750 -1.4535 -3.1688 -2.4488
  187POPC    HB21439   2.374   1.458   2.760 -1.4506  2.2040 -0.7271
  187POPC    C221440   2.281   1.356   2.931 -0.1752 -0.1723 -0.2463
  187POPC    HS21441   2.355   1.280   2.962 -0.3951  0.6308  2.5094
  187POPC   O2121442   2.140   1.325   2.957  0.0887 -0.2945 -0.2210
  187POPC   C2121443   2.113   1.251   3.064 -0.1882 -0.2583  0.2167
  187POPC   O2221444   2.204   1.200   3.131 -0.0058 -0.4587 -0.0804
  187POPC   C2221445   1.963   1.251   3.117  0.1107 -0.7590  0.1691
  187POPC   H2R21446   1.901   1.312   3.047 -1.0520 -3.1615 -0.9986
  187POPC   H2S21447   1.963   1.310   3.211  1.0828  2.2716 -1.5794
  187POPC    C321448   2.317   1.484   3.016  0.5443  0.1268  0.0392
  187POPC    HX21449   2.246   1.560   2.977 -0.8301 -0.5645  1.1289
  187POPC    HY21450   2.420   1.517   2.990  0.4037  1.0270  0.5953
  187POPC   O3121451   2.287   1.471   3.158 -0.3605  0.5429 -0.2152
  187POPC   C3121452   2.384   1.461   3.247  0.1426  0.6309  0.3586
  187POPC   O3221453   2.504   1.452   3.228  0.5593  0.3284 -0.2120
  187POPC   C3221454   2.319   1.482   3.390 -0.9376 -0.0193  0.6054
  187POPC   H2X21455   2.256   1.391   3.403 -1.2831  0.3462  1.5692
  187POPC   H2Y21456   2.248   1.568   3.383  1.5120  1.9861 -2.1035
  187POPC   C2321457   1.902   1.108   3.144 -0.2041  0.2027 -0.3300
  187POPC   H3R21458   1.800   1.137   3.176 -0.5622 -0.4947 -0.8086
  187POPC   H3S21459   1.953   1.067   3.233  0.3016  0.3214 -0.5619
  187POPC   C2421460   1.887   1.019   3.021  0.1849 -0.3828  0.3132
  187POPC   H4R21461   1.987   0.970   3.015  1.8821  2.7176  1.1824
  187POPC   H4S21462   1.888   1.081   2.929  0.1871  0.9376  1.1713
  187POPC   C2521463   1.776   0.910   3.029 -0.0360  0.0714  0.1290
  187POPC   H5R21464   1.810   0.827   2.963  4.1011  0.4345  1.4777
  187POPC   H5S21465   1.676   0.945   2.996  0.2071  1.1038  0.4470
  187POPC   C2621466   1.780   0.846   3.172  0.1402 -0.7765  0.3027
  187POPC   H6R21467   1.751   0.923   3.247  1.7115  0.0465  0.1107
  187POPC   H6S21468   1.882   0.817   3.206 -0.2290 -0.0790  2.1028
  187POPC   C2721469   1.697   0.715   3.178 -0.4085  0.2618  0.3711
  187POPC   H7R21470   1.737   0.640   3.106 -1.6008 -1.2395  1.2181
  187POPC   H7S21471   1.595   0.737   3.140  0.2497  0.5268 -1.3356
  187POPC   C2821472   1.708   0.633   3.306  0.7018 -1.0311 -0.7277
  187POPC   H8R21473   1.817   0.625   3.324  0.9843 -1.8153 -2.6505
  187POPC   H8S21474   1.687   0.524   3.297  1.2378 -1.0138 -2.6588
  187POPC   C2921475   1.621   0.690   3.413 -0.1064  0.4798 -0.5550
  187POPC   H9121476   1.601   0.795   3.392  0.7110  0.4135 -1.7644
  187POPC  C21021477   1.555   0.633   3.516 -0.3893 -0.3828  0.2588
  187POPC  H10121478   1.482   0.689   3.576 -2.2746 -1.9104 -0.4773
  187POPC  C21121479   1.570   0.486   3.551  0.5865  0.7457  0.9053
  187POPC  H11R21480   1.624   0.429   3.472 -1.8808 -1.2122  0.4849
  187POPC  H11S21481   1.470   0.436   3.552  0.7626 -0.0286 -3.0186
  187POPC  C21221482   1.644   0.471   3.684 -0.1087 -0.3736  0.0993
  187POPC  H12R21483   1.740   0.524   3.696 -0.0443 -0.7906  1.6382
  187POPC  H12S21484   1.668   0.364   3.704 -0.9902 -0.7077 -0.5671
  187POPC  C21321485   1.556   0.526   3.803  0.4644 -0.2806 -0.7991
  187POPC  H13R21486   1.465   0.462   3.805  0.1299  0.1767 -1.1472
  187POPC  H13S21487   1.526   0.632   3.789  0.7307  0.1726  1.6699
  187POPC  C21421488   1.610   0.495   3.950 -0.0785 -0.0097 -0.2359
  187POPC  H14R21489   1.705   0.550   3.963  0.1622 -0.2079 -1.1078
  187POPC  H14S21490   1.631   0.387   3.968 -0.1876 -0.0673 -0.4491
  187POPC  C21521491   1.523   0.534   4.068  0.3280 -0.1922  0.5896
  187POPC  H15R21492   1.442   0.461   4.090 -0.8835  0.8895 -0.1415
  187POPC  H15S21493   1.481   0.635   4.047 -1.1775 -1.0717 -0.9987
  187POPC  C21621494   1.611   0.527   4.196 -0.1407  0.0197 -0.4627
  187POPC  H16R21495   1.711   0.575   4.183  0.0563  0.2278  1.5462
  187POPC  H16S21496   1.634   0.422   4.222  1.7160  0.7227  0.9881
  187POPC  C21721497   1.543   0.583   4.321  0.5441  0.8431  0.4313
  187POPC  H17R21498   1.441   0.541   4.329  0.9329 -0.3562 -0.5247
  187POPC  H17S21499   1.520   0.691   4.311 -0.9842  0.4669 -0.4896
  187POPC  C21821500   1.623   0.556   4.443 -0.3848 -0.7050 -0.4989
  187POPC  H18R21501   1.574   0.581   4.540  1.1710 -1.8553  0.6255
  187POPC  H18S21502   1.724   0.601   4.452 -0.5685 -0.2714 -0.5304
  187POPC  H18T21503   1.631   0.448   4.467  0.7420 -0.6993 -0.7884
  187POPC   C3321504   2.424   1.514   3.501  0.0355 -0.9660  0.2382
  187POPC   H3X21505   2.482   1.596   3.454 -3.0754  0.0137 -2.1847
  187POPC   H3Y21506   2.483   1.426   3.536  0.4593  0.0338  2.1693
  187POPC   C3421507   2.368   1.566   3.638 -0.7219 -0.2023 -0.0357
  187POPC   H4X21508   2.331   1.670   3.624  1.9807  0.9229  0.5105
  187POPC   H4Y21509   2.451   1.579   3.711  1.2488  0.0512 -2.2174
  187POPC   C3521510   2.266   1.474   3.699 -0.2812 -0.4986  0.1482
  187POPC   H5X21511   2.291   1.366   3.713 -1.2243 -0.7711 -0.1492
  187POPC   H5Y21512   2.179   1.480   3.629 -0.1619  0.6045  0.0828
  187POPC   C3621513   2.221   1.530   3.836 -0.0478 -0.2156  0.1869
  187POPC   H6X21514   2.161   1.623   3.823  1.0328  0.6122  0.9464
  187POPC   H6Y21515   2.300   1.568   3.904 -0.0384  3.7527 -1.7536
  187POPC   C3721516   2.126   1.438   3.910 -0.3037  0.1894 -0.0571
  187POPC   H7X21517   2.180   1.348   3.948  0.0268  0.5877  0.4433
  187POPC   H7Y21518   2.044   1.405   3.844  0.7451 -1.2843 -0.6578
  187POPC   C3821519   2.066   1.511   4.031  0.1193 -0.0270 -0.8537
  187POPC   H8X21520   1.970   1.471   4.070  0.3062  1.3844  1.2030
  187POPC   H8Y21521   2.047   1.617   4.007 -0.1908 -0.1001 -0.9344
  187POPC   C3921522   2.170   1.504   4.148  0.6327 -0.0327 -0.7411
  187POPC   H9X21523   2.253   1.566   4.107 -0.7059  1.3211 -1.4973
  187POPC   H9Y21524   2.212   1.401   4.156 -0.1936 -0.3322 -0.1458
  187POPC  C31021525   2.118   1.562   4.283  0.1139  1.3293  1.0966
  187POPC  H10X21526   2.207   1.569   4.348  0.8749  0.4715  0.1737
  187POPC  H10Y21527   2.047   1.489   4.327  0.2638  0.7058  0.3297
  187POPC  C31121528   2.048   1.697   4.269  0.2219  1.3399 -0.4794
  187POPC  H11X21529   1.943   1.682   4.237  0.4814  0.4814 -0.9514
  187POPC  H11Y21530   2.085   1.747   4.178 -0.1462  0.9238 -0.8602
  187POPC  C31221531   2.049   1.791   4.390 -0.0247 -0.3436  0.4067
  187POPC  H12X21532   2.149   1.814   4.433 -0.7016  0.1005  1.7999
  187POPC  H12Y21533   2.009   1.743   4.482 -1.3253  1.2373  0.7124
  187POPC  C31321534   1.971   1.915   4.362 -0.1463  0.2458  0.2026
  187POPC  H13X21535   1.861   1.897   4.365 -0.5206  1.2960 -3.0430
  187POPC  H13Y21536   1.996   1.946   4.259  3.0258 -1.3867  0.3499
  187POPC  C31421537   1.991   2.029   4.471  0.2664  0.5533 -0.0139
  187POPC  H14X21538   1.968   1.977   4.566 -0.2180 -1.4473 -1.1737
  187POPC  H14Y21539   1.908   2.103   4.473 -0.8094 -0.6331  0.6415
  187POPC  C31521540   2.130   2.081   4.470  0.5394 -0.0377  0.4749
  187POPC  H15X21541   2.137   2.173   4.407  1.6574 -1.7134 -1.9911
  187POPC  H15Y21542   2.200   2.005   4.429  0.5903  0.0863  0.3286
  187POPC  C31621543   2.167   2.120   4.617 -0.3352  0.1625  0.1566
  187POPC  H16X21544   2.165   2.037   4.690 -1.3155 -0.4125 -0.5123
  187POPC  H16Y21545   2.112   2.209   4.654 -0.6971 -1.2680  3.4113
  187POPC  H16Z21546   2.277   2.136   4.613 -0.2345 -0.6236 -0.3498
  188POPC     N21547   1.561   0.032   2.545  0.2909 -0.3335  0.1025
  188POPC   C1221548   1.513  -0.034   2.675 -0.8177  0.0618  0.2526
  188POPC  H12A21549   1.478  -0.133   2.654  0.2361 -0.3338  0.2706
  188POPC  H12B21550   1.427   0.028   2.697  1.2781  3.3952 -0.0947
  188POPC   C1321551   1.572   0.184   2.558 -1.1228 -0.5753 -0.1225
  188POPC  H13A21552   1.471   0.219   2.575 -1.3878 -0.9785 -0.8198
  188POPC  H13B21553   1.635   0.212   2.641  0.4655  2.9479 -2.2584
  188POPC  H13C21554   1.614   0.232   2.471  0.6013 -0.0895  0.9450
  188POPC   C1421555   1.687  -0.029   2.499  0.3438 -1.1387  0.8507
  188POPC  H14A21556   1.765  -0.001   2.568  1.9627 -1.5533 -0.7409
  188POPC  H14B21557   1.680  -0.136   2.501  0.4926 -1.1556  0.5665
  188POPC  H14C21558   1.702   0.000   2.396 -0.1592  0.7018  1.2534
  188POPC   C1521559   1.451   0.003   2.440  0.4831  0.2231 -0.0892
  188POPC  H15A21560   1.425  -0.102   2.437 -1.3098  0.5534  1.5494
  188POPC  H15B21561   1.486   0.029   2.341  0.4593  0.9429  0.0824
  188POPC  H15C21562   1.355   0.048   2.459  0.4591  1.1324 -2.0433
  188POPC   C1121563   1.608  -0.034   2.798 -0.1900  0.5324  0.4473
  188POPC  H11A21564   1.552  -0.074   2.885 -0.6133  0.9960  0.3878
  188POPC  H11B21565   1.631   0.071   2.826 -0.3937  1.1409 -1.5455
  188POPC     P21566   1.769  -0.246   2.839  0.3814  0.1692 -0.1165
  188POPC   O1321567   1.877  -0.301   2.749  0.2051  0.1376 -0.3722
  188POPC   O1421568   1.646  -0.327   2.858 -0.7563  0.0608  0.2910
  188POPC   O1221569   1.734  -0.103   2.775  0.3358  0.0582  0.1083
  188POPC   O1121570   1.844  -0.205   2.972  0.3917 -0.1345  0.1781
  188POPC    C121571   1.777  -0.122   3.069  0.0969  0.4942 -0.2454
  188POPC    HA21572   1.667  -0.118   3.053  0.3778  1.1631 -2.3144
  188POPC    HB21573   1.808  -0.015   3.064  0.2590  0.4271 -0.6922
  188POPC    C221574   1.800  -0.178   3.213  0.4436  0.5129 -0.2890
  188POPC    HS21575   1.763  -0.109   3.293  0.1891 -1.5984  1.5006
  188POPC   O2121576   1.937  -0.206   3.232  0.0415 -0.4597  0.0998
  188POPC   C2121577   2.017  -0.099   3.241  0.3519  1.1868 -0.2639
  188POPC   O2221578   1.988   0.016   3.244  0.0782  0.3368  1.0133
  188POPC   C2221579   2.164  -0.138   3.260  0.6013 -0.2575 -0.1840
  188POPC   H2R21580   2.218  -0.044   3.236 -0.4520 -0.0335 -1.9123
  188POPC   H2S21581   2.191  -0.224   3.195  0.2980  1.0852 -2.2038
  188POPC    C321582   1.707  -0.308   3.242 -0.1173  0.2076  0.0676
  188POPC    HX21583   1.710  -0.389   3.165  0.7942 -0.6037  0.9256
  188POPC    HY21584   1.606  -0.263   3.240  0.2384  0.9955 -0.8885
  188POPC   O3121585   1.724  -0.353   3.376 -0.1176  0.1642  0.4021
  188POPC   C3121586   1.792  -0.458   3.392  0.4674  1.0444  0.0721
  188POPC   O3221587   1.850  -0.523   3.301  0.0982 -0.0851 -0.1452
  188POPC   C3221588   1.812  -0.493   3.546 -0.1233 -0.1470  1.0345
  188POPC   H2X21589   1.719  -0.515   3.602  0.7939 -1.0251  2.2651
  188POPC   H2Y21590   1.866  -0.407   3.591  0.1921  0.8533 -1.1378
  188POPC   C2321591   2.191  -0.159   3.411  0.4728 -0.2209  0.5737
  188POPC   H3R21592   2.167  -0.068   3.471  0.8293  0.8921 -0.9030
  188POPC   H3S21593   2.298  -0.179   3.431  1.2753  0.8104 -2.1902
  188POPC   C2421594   2.121  -0.284   3.466  0.1926  0.5044 -0.7533
  188POPC   H4R21595   2.137  -0.375   3.404  0.9134 -1.2351  1.8114
  188POPC   H4S21596   2.012  -0.264   3.455  0.1238  1.8621  1.6991
  188POPC   C2521597   2.158  -0.325   3.608 -0.1468  0.5031 -0.1888
  188POPC   H5R21598   2.267  -0.348   3.604  0.2746  2.4336 -2.3401
  188POPC   H5S21599   2.098  -0.415   3.631  1.3346 -0.9103 -1.6037
  188POPC   C2621600   2.136  -0.216   3.713 -0.0895 -0.3609 -1.1900
  188POPC   H6R21601   2.035  -0.174   3.695 -0.2473  0.1224  0.6244
  188POPC   H6S21602   2.203  -0.128   3.697 -0.4685 -0.1334 -1.5152
  188POPC   C2721603   2.145  -0.272   3.855 -0.7972  0.2942  0.1498
  188POPC   H7R21604   2.247  -0.315   3.863 -0.2820  1.5293  0.5039
  188POPC   H7S21605   2.081  -0.361   3.872 -1.1482 -0.1189 -2.8876
  188POPC   C2821606   2.132  -0.176   3.976  0.1918  0.0518 -0.0514
  188POPC   H8R21607   2.026  -0.143   3.986  0.9264  3.0266 -1.1494
  188POPC   H8S21608   2.192  -0.086   3.952  0.0393  0.1055 -0.2383
  188POPC   C2921609   2.166  -0.243   4.114  0.1401  0.2022 -0.2207
  188POPC   H9121610   2.255  -0.309   4.114 -1.1595 -1.6467  1.1667
  188POPC  C21021611   2.095  -0.256   4.231  0.0619  0.0734  0.7950
  188POPC  H10121612   2.145  -0.312   4.311  2.7161  0.2009 -0.6323
  188POPC  C21121613   1.965  -0.179   4.246  0.6885  0.5371 -0.0820
  188POPC  H11R21614   1.890  -0.244   4.196  1.5867  0.1357 -0.9469
  188POPC  H11S21615   1.965  -0.079   4.199 -1.9213  0.7467  0.1909
  188POPC  C21221616   1.909  -0.145   4.393  0.1482 -0.6051  0.1698
  188POPC  H12R21617   1.834  -0.063   4.392  1.1561  0.3482 -0.2508
  188POPC  H12S21618   1.990  -0.094   4.450 -0.8342 -0.0886  1.1339
  188POPC  C21321619   1.843  -0.256   4.470  0.5122  0.2244 -0.4284
  188POPC  H13R21620   1.916  -0.340   4.472  0.4857  0.1958 -0.6367
  188POPC  H13S21621   1.759  -0.301   4.413  1.8915 -2.2595 -0.6628
  188POPC  C21421622   1.798  -0.223   4.612  0.0227  0.5065 -0.1015
  188POPC  H14R21623   1.744  -0.313   4.647  0.8600  0.2629  0.5799
  188POPC  H14S21624   1.723  -0.140   4.611 -0.0688  0.4611  1.1222
  188POPC  C21521625   1.930  -0.198   4.693  0.2833  0.2105  0.7062
  188POPC  H15R21626   2.017  -0.156   4.637 -0.2127  0.5992  0.2151
  188POPC  H15S21627   1.959  -0.302   4.719 -0.1401 -0.4839 -1.3899
  188POPC  C21621628   1.896  -0.105   4.807 -0.9062 -0.0420 -0.0078
  188POPC  H16R21629   1.801  -0.065   4.764 -0.1293 -2.2081 -4.3462
  188POPC  H16S21630   1.970  -0.023   4.812  0.6032 -1.2928 -1.1061
  188POPC  C21721631   1.855  -0.155   4.939 -0.3882 -0.0388 -0.4816
  188POPC  H17R21632   1.943  -0.200   4.990 -0.1106  1.4668  0.4328
  188POPC  H17S21633   1.777  -0.233   4.923  0.6648 -0.8344 -2.0667
  188POPC  C21821634   1.807  -0.043   5.029 -0.1772  0.0393 -0.3346
  188POPC  H18R21635   1.745   0.022   4.963 -0.1391 -0.5598 -0.9725
  188POPC  H18S21636   1.895   0.015   5.064 -0.6734  1.2506 -1.0367
  188POPC  H18T21637   1.757  -0.084   5.119 -0.8487  0.9967 -0.2535
  188POPC   C3321638   1.901  -0.618   3.572 -0.7049  0.1620 -0.1315
  188POPC   H3X21639   2.006  -0.582   3.568 -0.6516 -0.1032 -2.0095
  188POPC   H3Y21640   1.867  -0.689   3.493 -3.6832  3.0913 -1.7459
  188POPC   C3421641   1.885  -0.680   3.713  0.3152  0.3158 -0.1187
  188POPC   H4X21642   1.777  -0.704   3.726  0.2443 -0.7957 -2.3650
  188POPC   H4Y21643   1.903  -0.596   3.783  0.9107  0.7820 -0.8156
  188POPC   C3521644   1.979  -0.800   3.748  0.1080  0.5987  0.1256
  188POPC   H5X21645   2.078  -0.768   3.709 -0.0727  1.2718  0.2051
  188POPC   H5Y21646   1.941  -0.886   3.689  0.2630  0.5400  0.1103
  188POPC   C3621647   1.988  -0.827   3.897 -0.4912  0.3707  0.4315
  188POPC   H6X21648   2.040  -0.921   3.925  0.4322  1.3276  2.0892
  188POPC   H6Y21649   1.886  -0.831   3.941 -1.3537 -0.2165 -1.5137
  188POPC   C3721650   2.071  -0.717   3.969  0.1414  0.1625  0.1049
  188POPC   H7X21651   2.039  -0.615   3.940 -1.7641 -1.0592 -2.5325
  188POPC   H7Y21652   2.178  -0.738   3.948  0.4670 -0.7178  2.3828
  188POPC   C3821653   2.058  -0.720   4.129  0.2517 -0.8688 -0.0057
  188POPC   H8X21654   2.058  -0.829   4.152 -0.8065 -0.9589 -0.3685
  188POPC   H8Y21655   1.955  -0.684   4.151 -0.5673 -1.6792 -2.2874
  188POPC   C3921656   2.170  -0.647   4.207 -0.0988 -0.0645 -1.2551
  188POPC   H9X21657   2.190  -0.544   4.170 -2.4433 -0.1595 -2.9499
  188POPC   H9Y21658   2.265  -0.691   4.169  1.2297  1.2780  0.3434
  188POPC  C31021659   2.170  -0.657   4.361  0.6959 -0.6230 -0.1087
  188POPC  H10X21660   2.246  -0.592   4.411  0.6085 -0.1114 -0.6342
  188POPC  H10Y21661   2.207  -0.754   4.399  0.3091 -0.9788 -0.6351
  188POPC  C31121662   2.034  -0.636   4.428 -0.2275  0.1332  0.0253
  188POPC  H11X21663   1.969  -0.714   4.385 -1.8929  2.2963 -1.6040
  188POPC  H11Y21664   1.989  -0.539   4.397 -1.5861 -0.5970 -0.3513
  188POPC  C31221665   2.036  -0.632   4.584 -0.9253 -0.5320  0.3725
  188POPC  H12X21666   2.073  -0.533   4.616 -1.6850  0.2075 -0.9448
  188POPC  H12Y21667   2.108  -0.713   4.610 -1.4307 -1.1767 -0.1913
  188POPC  C31321668   1.899  -0.660   4.642  0.0986 -0.3890  0.2847
  188POPC  H13X21669   1.872  -0.765   4.616  0.3160 -0.6942  1.2823
  188POPC  H13Y21670   1.823  -0.595   4.593 -1.4664 -2.9826 -0.9501
  188POPC  C31421671   1.891  -0.643   4.794  0.0784 -0.4407  0.7163
  188POPC  H14X21672   1.908  -0.536   4.818  0.4708 -0.0501 -1.1453
  188POPC  H14Y21673   1.979  -0.695   4.837  0.0461 -0.6670  0.5165
  188POPC  C31521674   1.763  -0.692   4.851 -0.1557 -0.1023 -0.5957
  188POPC  H15X21675   1.784  -0.692   4.960  0.1207  1.3661 -0.6302
  188POPC  H15Y21676   1.737  -0.794   4.816 -0.6847  0.2855 -1.3516
  188POPC  C31621677   1.650  -0.588   4.823  0.2174 -0.0117  0.1036
  188POPC  H16X21678   1.639  -0.565   4.714 -0.5970  1.1705  0.4111
  188POPC  H16Y21679   1.678  -0.493   4.874  3.3000 -1.0214  0.4619
  188POPC  H16Z21680   1.551  -0.618   4.865 -0.5023  1.1509 -0.6708
  189SAPI   C1221681   2.145   6.438   7.451  0.3080  0.0811 -0.8212
  189SAPI    H221682   2.090   6.535   7.453 -0.8025 -0.4909  3.0777
  189SAPI    O221683   2.227   6.459   7.560 -0.3380  0.1485 -0.3472
  189SAPI   HO221684   2.275   6.540   7.543 -0.9949  0.5780 -0.2094
  189SAPI   C1321685   2.045   6.327   7.467  0.2634 -0.8444 -0.0238
  189SAPI    H321686   1.981   6.322   7.377  0.6756 -1.8493 -0.2790
  189SAPI    O321687   1.958   6.353   7.582 -0.1970  0.4319  0.0828
  189SAPI   HO321688   2.016   6.329   7.656  0.6142  0.7432 -0.4411
  189SAPI   C1421689   2.120   6.196   7.478  0.9251 -0.5158 -0.1903
  189SAPI    H421690   2.150   6.205   7.585 -1.0901  1.6425  0.2864
  189SAPI    O421691   2.040   6.078   7.482  0.4210  0.4491  0.1200
  189SAPI   HO421692   2.062   6.035   7.565 -1.2676  2.1629  1.5587
  189SAPI   C1521693   2.242   6.182   7.390  0.1799 -0.4959  0.2307
  189SAPI    H521694   2.197   6.136   7.299  1.0866  1.3965 -1.2351
  189SAPI    O521695   2.341   6.094   7.449  0.0888 -0.1569  0.0001
  189SAPI   HO521696   2.381   6.038   7.382  3.6518  2.2902 -0.1988
  189SAPI   C1621697   2.304   6.303   7.320 -0.5202  0.5323 -0.4441
  189SAPI    H621698   2.394   6.321   7.382 -0.2440  0.2817 -0.7625
  189SAPI    O621699   2.355   6.270   7.192 -0.1765 -0.0724 -0.5105
  189SAPI   HO621700   2.294   6.220   7.137  0.6143 -1.3465 -0.2764
  189SAPI   C1121701   2.224   6.428   7.328 -0.7572 -0.2634  0.7783
  189SAPI    H121702   2.147   6.415   7.250 -1.1246  1.0799  0.8994
  189SAPI     P21703   2.235   6.672   7.202 -0.5285  0.0468  0.0201
  189SAPI   O1321704   2.342   6.773   7.185 -0.1721  0.1015  0.4856
  189SAPI   O1421705   2.116   6.721   7.272  0.2302 -0.1225 -0.5739
  189SAPI   O1221706   2.308   6.543   7.288  0.3525  0.5855 -0.2511
  189SAPI   O1121707   2.197   6.614   7.053 -0.0717 -0.3377  0.1312
  189SAPI    C121708   2.269   6.515   6.983 -0.0450  0.8277  0.1090
  189SAPI    HA21709   2.343   6.470   7.053 -2.0352 -1.0310  1.1219
  189SAPI    HB21710   2.196   6.438   6.948  1.0642  0.2158 -0.9552
  189SAPI    C221711   2.352   6.580   6.866 -0.0306 -0.1227 -0.1602
  189SAPI    HS21712   2.387   6.674   6.913 -2.5753 -0.0427  1.8199
  189SAPI   O2121713   2.265   6.601   6.756 -0.5766 -0.1951 -0.7287
  189SAPI   C2121714   2.234   6.720   6.729  0.0794  0.3919 -0.4751
  189SAPI   O2221715   2.278   6.818   6.790  0.6917 -0.1667  0.2212
  189SAPI   C2221716   2.133   6.720   6.608 -0.5635 -0.4686  0.0499
  189SAPI   H2R21717   2.119   6.613   6.585  2.2872 -1.2360  1.4707
  189SAPI   H2S21718   2.044   6.764   6.658  0.6929  0.8313  1.2589
  189SAPI    C321719   2.471   6.487   6.835 -0.6077  0.2993 -0.1305
  189SAPI    HX21720   2.444   6.389   6.790 -1.1939 -0.2201  1.3134
  189SAPI    HY21721   2.530   6.473   6.928  0.6126 -1.5657 -1.1349
  189SAPI   O3121722   2.560   6.567   6.747  0.2165  0.3504  0.2558
  189SAPI   C3121723   2.665   6.498   6.696  0.5583 -0.0263 -0.1161
  189SAPI   O3221724   2.683   6.378   6.703 -0.0402  0.7374  0.2758
  189SAPI   C3221725   2.750   6.599   6.608  0.2499 -0.5297  0.0787
  189SAPI   H2X21726   2.794   6.677   6.675  1.4004 -1.2227  0.1442
  189SAPI   H2Y21727   2.691   6.636   6.522  2.8832 -0.1471 -1.6662
  189SAPI   C2321728   2.179   6.816   6.500  0.2839 -0.1144 -0.9015
  189SAPI   H3R21729   2.192   6.918   6.540 -0.9018 -0.7683  1.2820
  189SAPI   H3S21730   2.100   6.833   6.423  1.1417  0.7780 -1.6175
  189SAPI   C2421731   2.314   6.771   6.438  1.0240  0.0512  0.8126
  189SAPI   H4R21732   2.290   6.667   6.408  1.7376 -0.3233  1.5239
  189SAPI   H4S21733   2.392   6.781   6.516  1.9947  0.3094 -0.1669
  189SAPI   C2521734   2.355   6.854   6.319  0.1921  0.3117 -0.0207
  189SAPI   H5R21735   2.420   6.940   6.342  1.6508 -0.7531 -0.0201
  189SAPI   C2621736   2.325   6.834   6.188 -0.2757  0.0416 -0.8751
  189SAPI   H6R21737   2.352   6.916   6.120 -2.3311  2.7827  1.3602
  189SAPI   C2721738   2.243   6.720   6.127  0.0540  0.3829  0.0089
  189SAPI   H7R21739   2.154   6.765   6.078 -0.6142  1.1511  1.8653
  189SAPI   H7S21740   2.186   6.655   6.197 -1.7102  2.4933  0.6545
  189SAPI   C2821741   2.323   6.636   6.026  0.0198  0.2146  0.6287
  189SAPI   H8R21742   2.355   6.536   6.059  0.8583  0.6890  1.2993
  189SAPI   C2921743   2.351   6.670   5.899 -0.5055 -0.1103  0.4062
  189SAPI   H9R21744   2.410   6.602   5.836  1.4115  0.3148  1.6516
  189SAPI  C21021745   2.303   6.801   5.837 -0.1207  0.2245  0.3548
  189SAPI  H10R21746   2.304   6.883   5.911 -1.7301  1.1084 -0.5694
  189SAPI  H10S21747   2.196   6.794   5.810 -0.1023  1.9147 -0.2748
  189SAPI  C21121748   2.384   6.831   5.719 -0.3299  0.4137 -0.3116
  189SAPI  H11R21749   2.492   6.840   5.737  0.2789 -0.2384 -3.1474
  189SAPI  C21221750   2.340   6.839   5.592  0.5403  0.5652 -0.3880
  189SAPI  H12R21751   2.412   6.853   5.510 -0.7966 -3.8459 -2.6339
  189SAPI  C21321752   2.203   6.818   5.542  0.4510 -0.2543 -0.0578
  189SAPI  H13R21753   2.164   6.904   5.484  1.0434  0.3790  0.4770
  189SAPI  H13S21754   2.130   6.794   5.622  0.9925  1.2082  0.9002
  189SAPI  C21421755   2.190   6.692   5.460  0.1701 -0.5765  0.6275
  189SAPI  H14R21756   2.181   6.601   5.522  0.3432 -1.1806 -0.2100
  189SAPI  C21521757   2.199   6.686   5.323  0.3734 -0.0389  0.4209
  189SAPI  H15R21758   2.186   6.586   5.278  0.2677  0.6092 -1.0409
  189SAPI  C21621759   2.233   6.792   5.222 -0.1253  0.2258 -0.4740
  189SAPI  H16R21760   2.304   6.868   5.262  0.2137  2.0886 -4.2306
  189SAPI  H16S21761   2.141   6.841   5.184  0.2678 -0.0431 -1.8158
  189SAPI  C21721762   2.312   6.744   5.109 -0.0883  0.4578  0.3472
  189SAPI  H17R21763   2.394   6.675   5.136 -0.2867  0.3735  0.7395
  189SAPI  H17S21764   2.354   6.828   5.049 -0.4839 -0.4377 -1.2380
  189SAPI  C21821765   2.234   6.667   5.002  0.2740  0.3701 -0.2462
  189SAPI  H18R21766   2.168   6.731   4.939  1.7823  0.3435 -1.9707
  189SAPI  H18S21767   2.162   6.602   5.055  0.1047  0.9689  0.2611
  189SAPI  C21921768   2.316   6.579   4.909  1.0183  0.1689 -0.4922
  189SAPI  H19R21769   2.380   6.515   4.973 -0.5115  0.1089  1.0551
  189SAPI  H19S21770   2.383   6.635   4.840  1.9453 -0.9618 -0.5364
  189SAPI  C22021771   2.228   6.491   4.828  0.2268 -0.2350  0.1621
  189SAPI  H20R21772   2.178   6.412   4.887  0.5678 -1.1477 -0.7385
  189SAPI  H20S21773   2.302   6.424   4.779  3.4688  1.8479  1.8716
  189SAPI  H20T21774   2.151   6.538   4.763 -0.4073  0.1542  1.1650
  189SAPI   C3321775   2.868   6.537   6.539  0.8950 -0.2633  0.1549
  189SAPI   H3X21776   2.925   6.483   6.617 -0.2230 -1.0216  0.4581
  189SAPI   H3Y21777   2.939   6.617   6.506 -0.3997  0.4979 -0.8686
  189SAPI   C3421778   2.841   6.440   6.419 -0.6019 -1.1255  0.4233
  189SAPI   H4X21779   2.775   6.353   6.438  0.9852 -2.2808  0.8470
  189SAPI   H4Y21780   2.941   6.396   6.395 -0.6783  0.4521 -3.6923
  189SAPI   C3521781   2.806   6.513   6.290 -0.0747 -0.2075  0.2278
  189SAPI   H5X21782   2.893   6.579   6.268  0.9866 -0.4025  3.2987
  189SAPI   H5Y21783   2.717   6.574   6.315  1.1482  1.2636  1.1718
  189SAPI   C3621784   2.797   6.410   6.174  0.0940 -0.0983 -0.0627
  189SAPI   H6X21785   2.723   6.333   6.205  0.8640 -0.6654  0.4361
  189SAPI   H6Y21786   2.895   6.360   6.159  0.1779  0.0918 -0.1498
  189SAPI   C3721787   2.751   6.464   6.035  0.0912  0.6074  1.0112
  189SAPI   H7X21788   2.834   6.528   5.999 -1.1258  1.4726 -0.3696
  189SAPI   H7Y21789   2.664   6.531   6.052 -2.1168 -1.7159 -0.3229
  189SAPI   C3821790   2.707   6.349   5.938 -0.3496  0.8495  0.1334
  189SAPI   H8X21791   2.606   6.307   5.960  0.1382 -2.0382 -2.4462
  189SAPI   H8Y21792   2.780   6.266   5.950  0.3585  1.2426 -1.2664
  189SAPI   C3921793   2.692   6.390   5.789 -0.1019  1.4704 -0.6790
  189SAPI   H9X21794   2.611   6.465   5.780 -1.3523  0.4029  1.0832
  189SAPI   H9Y21795   2.659   6.296   5.740  1.0044 -0.1049  1.4404
  189SAPI  C31021796   2.815   6.443   5.728  0.0420  0.2140  0.2729
  189SAPI  H10X21797   2.869   6.352   5.694 -1.3386 -0.4576 -0.1805
  189SAPI  H10Y21798   2.883   6.491   5.802 -2.0179  0.8854  1.8205
  189SAPI  C31121799   2.793   6.533   5.603  0.3738 -0.3019  0.3133
  189SAPI  H11X21800   2.887   6.565   5.553 -0.9410 -0.4106 -2.3903
  189SAPI  H11Y21801   2.749   6.632   5.627  2.1365  0.6392 -0.1891
  189SAPI  C31221802   2.709   6.460   5.501 -0.0998  0.6564  0.3967
  189SAPI  H12X21803   2.601   6.484   5.511 -0.5617 -0.0408 -2.2651
  189SAPI  H12Y21804   2.710   6.353   5.531 -2.8701  0.4798  0.0939
  189SAPI  C31321805   2.747   6.484   5.355  0.5483  0.1559  0.1509
  189SAPI  H13X21806   2.691   6.413   5.290  2.3326  0.4088 -1.7723
  189SAPI  H13Y21807   2.847   6.444   5.328  1.0111  0.5115  1.2532
  189SAPI  C31421808   2.748   6.629   5.301 -0.3612  0.5783  0.5135
  189SAPI  H14X21809   2.827   6.680   5.360  0.9468 -0.9440  0.1233
  189SAPI  H14Y21810   2.650   6.679   5.322 -0.1795  0.6082  1.3575
  189SAPI  C31521811   2.780   6.631   5.147 -0.4885  0.5279  0.0788
  189SAPI  H15X21812   2.720   6.553   5.096 -0.3309 -0.9924  2.0882
  189SAPI  H15Y21813   2.887   6.600   5.150 -0.6271  0.1340  1.3696
  189SAPI  C31621814   2.785   6.774   5.076 -0.4058 -0.1245 -0.3314
  189SAPI  H16X21815   2.825   6.855   5.140  0.4570 -0.5086 -0.3694
  189SAPI  H16Y21816   2.686   6.816   5.048 -0.4964 -0.0090  0.1406
  189SAPI  C31721817   2.864   6.769   4.943 -0.2243 -0.2271  0.3745
  189SAPI  H17X21818   2.968   6.744   4.975  0.4552 -1.0245 -2.2458
  189SAPI  H17Y21819   2.863   6.861   4.882  0.0595 -0.8037 -0.5170
  189SAPI  C31821820   2.826   6.652   4.855 -0.7528 -0.1477 -0.3740
  189SAPI  H18X21821   2.716   6.639   4.865 -0.9313  2.0100  0.9793
  189SAPI  H18Y21822   2.885   6.561   4.883  1.0075  1.0186 -0.1492
  189SAPI  H18Z21823   2.851   6.677   4.749 -1.0921  1.1466 -0.1593
  190SAPI   C1221824   4.349   1.541   7.188 -0.2724 -0.1398 -0.4504
  190SAPI    H221825   4.265   1.557   7.260 -2.1742 -0.2078 -2.5322
  190SAPI    O221826   4.468   1.581   7.242  0.0441 -0.3092 -0.1752
  190SAPI   HO221827   4.475   1.539   7.328  1.8657 -0.8706 -0.5596
  190SAPI   C1321828   4.349   1.396   7.148  0.4503  0.0529  0.1093
  190SAPI    H321829   4.254   1.381   7.092  0.6922  1.1951 -0.6574
  190SAPI    O321830   4.343   1.316   7.261  0.7797 -0.0890  0.5332
  190SAPI   HO321831   4.350   1.226   7.228  3.0385  0.0094  0.5876
  190SAPI   C1421832   4.459   1.373   7.052  0.3997  0.3707 -0.3128
  190SAPI    H421833   4.552   1.382   7.113 -1.3827  2.3995  2.3572
  190SAPI    O421834   4.461   1.235   7.011 -0.8634 -0.3583  0.0414
  190SAPI   HO421835   4.502   1.183   7.080 -1.6984 -1.1238 -0.0155
  190SAPI   C1521836   4.473   1.462   6.933  0.4964  0.0838 -0.2562
  190SAPI    H521837   4.403   1.424   6.855  0.8199  0.8094 -0.9203
  190SAPI    O521838   4.600   1.466   6.872 -0.1731  0.4679  0.1355
  190SAPI   HO521839   4.666   1.501   6.933 -2.9138  2.2777  2.3573
  190SAPI   C1621840   4.418   1.599   6.950  0.5916 -0.0181 -0.3101
  190SAPI    H621841   4.501   1.667   6.980  0.3570 -0.1614  0.7097
  190SAPI    O621842   4.369   1.650   6.826  0.0484  0.7419 -0.2703
  190SAPI   HO621843   4.448   1.688   6.787 -0.3581  1.3099 -0.5538
  190SAPI   C1121844   4.320   1.619   7.063  0.0058 -0.7718  0.0620
  190SAPI    H121845   4.221   1.586   7.026  0.1895 -2.5127  1.0160
  190SAPI     P21846   4.167   1.848   7.111 -0.2407  0.8704 -0.2481
  190SAPI   O1321847   4.200   1.990   7.117 -0.3888  0.2200  0.1807
  190SAPI   O1421848   4.095   1.789   7.223  0.1036 -0.0734  0.0174
  190SAPI   O1221849   4.313   1.762   7.100 -0.1610 -0.1747  0.5878
  190SAPI   O1121850   4.088   1.817   6.981  0.1147 -0.1115 -0.5079
  190SAPI    C121851   4.072   1.918   6.882  0.1081 -0.3627  0.4778
  190SAPI    HA21852   4.160   1.983   6.866 -0.7249  1.1973  1.8333
  190SAPI    HB21853   4.048   1.865   6.787  2.4728 -0.8634  0.1163
  190SAPI    C221854   3.954   2.012   6.918  0.0978  0.2988 -0.0116
  190SAPI    HS21855   3.983   2.065   7.011 -1.1132  1.4487 -0.2680
  190SAPI   O2121856   3.844   1.926   6.946  0.0866  0.1838 -0.2079
  190SAPI   C2121857   3.763   1.959   7.043 -0.4590  0.7095 -0.1993
  190SAPI   O2221858   3.780   2.044   7.129 -0.3403  0.0779 -0.3761
  190SAPI   C2221859   3.634   1.866   7.043 -0.9629  0.1007 -0.4819
  190SAPI   H2R21860   3.649   1.789   7.121 -0.2102  1.5384  0.8448
  190SAPI   H2S21861   3.548   1.928   7.076  0.0424  1.2223  0.1117
  190SAPI    C321862   3.916   2.108   6.796  0.3761  0.0752  0.1877
  190SAPI    HX21863   4.015   2.151   6.771  1.0931 -1.9628 -0.7058
  190SAPI    HY21864   3.846   2.185   6.835 -1.4427 -1.7591  0.7053
  190SAPI   O3121865   3.866   2.036   6.680 -0.4000  0.0538  0.4441
  190SAPI   C3121866   3.736   2.024   6.669 -0.1291 -0.0844  0.2125
  190SAPI   O3221867   3.651   2.098   6.725 -0.4622  0.2008  0.5804
  190SAPI   C3221868   3.701   1.925   6.556  0.8605 -0.3937 -0.2426
  190SAPI   H2X21869   3.630   1.849   6.595 -0.2859  0.8926  0.2479
  190SAPI   H2Y21870   3.795   1.879   6.518  0.2404 -0.8473 -1.2527
  190SAPI   C2321871   3.607   1.790   6.914  0.5533  0.3837  0.6708
  190SAPI   H3R21872   3.691   1.725   6.882 -0.4055 -0.2567 -0.6468
  190SAPI   H3S21873   3.596   1.864   6.831  0.5870  0.5217  0.7909
  190SAPI   C2421874   3.483   1.697   6.922  0.2064 -0.5292  0.3263
  190SAPI   H4R21875   3.393   1.762   6.923  1.7044  1.8408 -2.7345
  190SAPI   H4S21876   3.495   1.641   7.018  1.0658 -0.5299  0.2288
  190SAPI   C2521877   3.483   1.599   6.809  0.1601  0.2634 -0.6874
  190SAPI   H5R21878   3.525   1.504   6.843  0.7818  0.4345 -0.9761
  190SAPI   C2621879   3.416   1.608   6.692  0.0056  0.4990 -0.3994
  190SAPI   H6R21880   3.412   1.529   6.615 -0.6474  0.0078  0.1274
  190SAPI   C2721881   3.337   1.729   6.647 -0.1547 -0.3929 -0.0544
  190SAPI   H7R21882   3.403   1.798   6.591  1.5435 -1.7498  0.1992
  190SAPI   H7S21883   3.302   1.787   6.735 -0.3550 -1.1950  0.4034
  190SAPI   C2821884   3.209   1.708   6.561 -0.4521 -0.0572 -0.2528
  190SAPI   H8R21885   3.124   1.664   6.616  0.6146 -0.2930  1.2601
  190SAPI   C2921886   3.188   1.739   6.430  0.2819 -0.0910 -0.1412
  190SAPI   H9R21887   3.085   1.722   6.395 -0.9756  1.0302  2.7055
  190SAPI  C21021888   3.290   1.789   6.337  0.1725  0.5827  0.2579
  190SAPI  H10R21889   3.387   1.754   6.377 -0.7421  1.9193  4.1221
  190SAPI  H10S21890   3.296   1.899   6.355 -1.2762  0.7791 -0.2550
  190SAPI  C21121891   3.258   1.754   6.194  0.0926  0.8590  0.4513
  190SAPI  H11R21892   3.217   1.653   6.186  1.2551  0.3009  1.2042
  190SAPI  C21221893   3.276   1.842   6.094  0.3170  0.4198 -0.0495
  190SAPI  H12R21894   3.264   1.803   5.992  0.0869 -2.2962  0.9300
  190SAPI  C21321895   3.342   1.977   6.102 -0.6175 -0.7349  0.2813
  190SAPI  H13R21896   3.362   2.010   6.206  1.2749 -0.3051 -0.1824
  190SAPI  H13S21897   3.266   2.042   6.053 -0.3708 -0.3088  0.4549
  190SAPI  C21421898   3.472   1.991   6.024  0.1731 -0.0920  0.4281
  190SAPI  H14R21899   3.557   1.966   6.089 -0.4819 -0.8613  1.0134
  190SAPI  C21521900   3.473   2.013   5.893 -0.7460  0.0107  0.5483
  190SAPI  H15R21901   3.574   2.025   5.851 -0.5309 -0.0860  1.0298
  190SAPI  C21621902   3.362   2.057   5.798 -0.4859  0.0301 -0.3316
  190SAPI  H16R21903   3.257   2.048   5.833  0.1495 -0.8460  1.4332
  190SAPI  H16S21904   3.353   2.001   5.702 -2.1479 -1.6842  0.7524
  190SAPI  C21721905   3.380   2.203   5.758  0.0490  0.2588 -0.1581
  190SAPI  H17R21906   3.486   2.219   5.730  0.1686 -0.9076 -0.4280
  190SAPI  H17S21907   3.353   2.259   5.850  2.3321  0.8478  0.2069
  190SAPI  C21821908   3.293   2.245   5.637  0.6170 -0.6755 -0.0565
  190SAPI  H18R21909   3.316   2.196   5.540  0.0882  0.1029 -0.5855
  190SAPI  H18S21910   3.318   2.352   5.617  1.0918 -0.9359 -0.9134
  190SAPI  C21921911   3.134   2.257   5.645 -0.2321 -0.4259 -0.4649
  190SAPI  H19R21912   3.093   2.334   5.712  0.7087 -0.2277 -0.1022
  190SAPI  H19S21913   3.107   2.152   5.669  1.2966 -1.5608 -3.1271
  190SAPI  C22021914   3.078   2.307   5.503  0.1257 -0.0335 -0.3227
  190SAPI  H20R21915   3.143   2.393   5.476  1.7762 -0.6012  1.5413
  190SAPI  H20S21916   2.974   2.332   5.531  0.4979  2.3870 -0.9073
  190SAPI  H20T21917   3.083   2.220   5.434  1.1763 -1.2406  1.1696
  190SAPI   C3321918   3.621   1.998   6.450 -0.5048 -0.0052 -0.5654
  190SAPI   H3X21919   3.542   2.060   6.497 -0.3257  0.9399 -1.4702
  190SAPI   H3Y21920   3.566   1.925   6.387 -2.1987  0.1275  0.6852
  190SAPI   C3421921   3.702   2.098   6.363 -0.4187  0.3567  0.1916
  190SAPI   H4X21922   3.747   2.174   6.430 -1.9829  0.0601  1.6485
  190SAPI   H4Y21923   3.628   2.147   6.296 -1.0000 -0.0955  0.4870
  190SAPI   C3521924   3.810   2.026   6.289 -0.5799 -0.4780  0.1159
  190SAPI   H5X21925   3.773   1.928   6.253 -0.9846 -1.0331  1.9559
  190SAPI   H5Y21926   3.892   1.985   6.352 -1.2266 -0.7029  0.8204
  190SAPI   C3621927   3.876   2.120   6.186  0.1509  0.0565  1.1338
  190SAPI   H6X21928   3.985   2.101   6.185 -0.1720 -2.0757  1.5687
  190SAPI   H6Y21929   3.854   2.222   6.225 -2.1331  0.0051  0.1935
  190SAPI   C3721930   3.815   2.107   6.049  0.4844 -0.0222 -0.0925
  190SAPI   H7X21931   3.710   2.141   6.040  0.5132  0.3156  0.7373
  190SAPI   H7Y21932   3.836   2.006   6.007  3.9478  0.0799  1.0281
  190SAPI   C3821933   3.883   2.210   5.951  1.0319 -0.3940 -0.2756
  190SAPI   H8X21934   3.994   2.206   5.959  0.9683 -0.7167  0.5373
  190SAPI   H8Y21935   3.846   2.309   5.983  0.2905 -0.6298 -0.3788
  190SAPI   C3921936   3.828   2.197   5.810  0.0950  0.2872 -0.0150
  190SAPI   H9X21937   3.848   2.289   5.750 -0.9067 -0.6377 -1.8544
  190SAPI   H9Y21938   3.718   2.209   5.814  0.2168  2.2545 -1.1282
  190SAPI  C31021939   3.877   2.073   5.731 -0.0577 -0.4580  0.3858
  190SAPI  H10X21940   3.807   1.991   5.758 -1.5745  0.6828  0.0617
  190SAPI  H10Y21941   3.983   2.058   5.760  0.5681  1.6505 -0.5823
  190SAPI  C31121942   3.875   2.089   5.583  0.4220  0.3449  0.2153
  190SAPI  H11X21943   3.932   2.010   5.529  1.2623  0.2098  1.2566
  190SAPI  H11Y21944   3.934   2.182   5.565  0.5179  0.3110  0.3536
  190SAPI  C31221945   3.736   2.104   5.520 -1.1066  0.3364 -0.4884
  190SAPI  H12X21946   3.671   2.185   5.559  2.8087  3.1886  0.7844
  190SAPI  H12Y21947   3.676   2.011   5.529 -1.0770  0.4094  0.6474
  190SAPI  C31321948   3.754   2.130   5.371  0.4573  0.0827 -1.0163
  190SAPI  H13X21949   3.667   2.075   5.329 -0.2878 -2.6371  3.4847
  190SAPI  H13Y21950   3.841   2.077   5.325  1.6426 -0.2672  1.4696
  190SAPI  C31421951   3.774   2.274   5.331  0.6572  0.3453  0.6036
  190SAPI  H14X21952   3.867   2.311   5.379  1.4162  2.7765 -2.4139
  190SAPI  H14Y21953   3.684   2.326   5.371 -0.3382  0.5129 -1.6840
  190SAPI  C31521954   3.782   2.300   5.181 -0.0981  0.1333  0.0532
  190SAPI  H15X21955   3.684   2.276   5.135  0.7394 -0.6009 -1.4675
  190SAPI  H15Y21956   3.857   2.231   5.135 -1.7886 -2.5201  1.0754
  190SAPI  C31621957   3.817   2.449   5.139 -0.0717  0.6578  0.1824
  190SAPI  H16X21958   3.921   2.469   5.172 -0.4733 -1.1997  2.8954
  190SAPI  H16Y21959   3.751   2.514   5.202 -1.6531 -1.9799  1.4147
  190SAPI  C31721960   3.786   2.484   4.995  0.1037 -0.2435  0.3544
  190SAPI  H17X21961   3.798   2.594   4.982  2.2299 -0.4361  0.2066
  190SAPI  H17Y21962   3.681   2.473   4.962  0.4399  0.0898 -0.8926
  190SAPI  C31821963   3.881   2.410   4.894  0.2748  0.6792  0.4351
  190SAPI  H18X21964   3.824   2.333   4.838 -2.0200  2.2751  0.4448
  190SAPI  H18Y21965   3.980   2.377   4.933  0.8310  0.8260 -0.8190
  190SAPI  H18Z21966   3.905   2.472   4.805 -0.8578 -0.0292 -0.3781
  191SAPI   C1221967   2.417   5.984   2.539  1.1230 -0.3748 -0.3228
  191SAPI    H221968   2.476   6.026   2.624 -0.2204  1.0587 -0.0565
  191SAPI    O221969   2.282   5.979   2.586  0.2124  0.0643  0.5295
  191SAPI   HO221970   2.290   5.949   2.677 -1.0850  0.0427  0.6624
  191SAPI   C1321971   2.436   6.082   2.431  0.2357 -0.1418 -0.2847
  191SAPI    H321972   2.538   6.069   2.387  0.5866  0.8691  0.1856
  191SAPI    O321973   2.420   6.214   2.469  0.2623 -0.3583 -0.5526
  191SAPI   HO321974   2.339   6.231   2.518  1.5398  1.7114  1.0588
  191SAPI   C1421975   2.329   6.042   2.330 -0.0985 -0.1908 -0.1871
  191SAPI    H421976   2.229   6.062   2.374 -0.2508  0.7139 -0.9262
  191SAPI    O421977   2.334   6.125   2.212  0.0828 -0.7997  0.1132
  191SAPI   HO421978   2.243   6.145   2.186  0.2044  0.1322  0.3469
  191SAPI   C1521979   2.335   5.893   2.286 -0.6064 -0.1640  0.0835
  191SAPI    H521980   2.413   5.895   2.206 -1.1403 -1.9486 -0.5127
  191SAPI    O521981   2.212   5.859   2.219 -0.1073  0.0498 -0.1269
  191SAPI   HO521982   2.231   5.797   2.148  0.2108 -1.3866  1.1478
  191SAPI   C1621983   2.383   5.798   2.391  0.5856  0.7525  0.6313
  191SAPI    H621984   2.292   5.767   2.447 -0.0735  2.1149  0.3448
  191SAPI    O621985   2.422   5.675   2.331  0.2461  0.1880 -0.0553
  191SAPI   HO621986   2.349   5.634   2.283  0.7571 -0.2302 -0.4879
  191SAPI   C1121987   2.464   5.848   2.505 -0.1499 -0.3239 -0.0313
  191SAPI    H121988   2.565   5.859   2.461 -1.1595  2.8092 -1.9246
  191SAPI     P21989   2.600   5.743   2.719 -0.0716 -0.2298  0.1171
  191SAPI   O1321990   2.711   5.813   2.652 -0.2214 -0.2065  0.1576
  191SAPI   O1421991   2.620   5.594   2.745 -0.0912 -0.5516  0.3309
  191SAPI   O1221992   2.473   5.757   2.610 -0.0084  0.9148 -0.5762
  191SAPI   O1121993   2.550   5.824   2.845  0.0513  0.1080 -0.1284
  191SAPI    C121994   2.530   5.757   2.974 -0.7230  0.1624 -0.0296
  191SAPI    HA21995   2.572   5.655   2.971  1.3190  0.9827 -1.7028
  191SAPI    HB21996   2.606   5.802   3.041 -0.9084  1.0538 -0.4024
  191SAPI    C221997   2.393   5.763   3.043 -0.3475 -0.5448 -0.1363
  191SAPI    HS21998   2.319   5.699   2.989 -0.8000 -0.6917  0.6436
  191SAPI   O2121999   2.344   5.901   3.058 -0.0531  0.0876 -0.0134
  191SAPI   C2122000   2.291   5.955   2.947 -0.3795  1.1672 -0.0578
  191SAPI   O2222001   2.274   5.896   2.841  0.6440  0.1604  0.0081
  191SAPI   C2222002   2.260   6.096   2.963 -0.3586 -0.5849  0.5962
  191SAPI   H2R22003   2.325   6.147   3.037  3.1423 -0.8417 -2.0683
  191SAPI   H2S22004   2.288   6.141   2.865  1.2347  0.6368  1.5723
  191SAPI    C322005   2.390   5.691   3.184  0.0279  0.3301 -0.5118
  191SAPI    HX22006   2.285   5.690   3.220 -0.7104 -1.0873 -2.4778
  191SAPI    HY22007   2.457   5.749   3.250  0.0763  0.2824 -0.5190
  191SAPI   O3122008   2.443   5.556   3.171 -0.0664  0.7899  0.3095
  191SAPI   C3122009   2.367   5.459   3.122  0.7871  0.3748  0.2240
  191SAPI   O3222010   2.259   5.479   3.072 -0.5752  0.3124 -0.3622
  191SAPI   C3222011   2.431   5.320   3.136 -0.2835  1.2755 -0.5811
  191SAPI   H2X22012   2.512   5.333   3.211  0.5368  0.1004 -1.2364
  191SAPI   H2Y22013   2.489   5.300   3.044  3.1957 -1.2028  1.8906
  191SAPI   C2322014   2.113   6.132   2.983  0.4768 -0.3218  0.0422
  191SAPI   H3R22015   2.052   6.103   2.895  2.2015 -0.3512 -1.1767
  191SAPI   H3S22016   2.096   6.242   2.987 -3.6291 -0.6457 -2.3561
  191SAPI   C2422017   2.061   6.073   3.115 -0.4704 -0.3207  0.0620
  191SAPI   H4R22018   2.110   5.973   3.127  3.0727  1.1245 -1.1069
  191SAPI   H4S22019   1.950   6.065   3.119 -0.4165 -2.2405 -0.8007
  191SAPI   C2522020   2.104   6.157   3.231  0.0021  0.4207 -0.1083
  191SAPI   H5R22021   2.089   6.266   3.220 -0.5976  0.0955 -4.2330
  191SAPI   C2622022   2.154   6.111   3.353  0.0252  0.2843  0.4344
  191SAPI   H6R22023   2.175   6.189   3.427  0.4720  1.6150 -1.0433
  191SAPI   C2722024   2.188   5.965   3.392 -0.6656 -0.2587 -0.2468
  191SAPI   H7R22025   2.252   5.959   3.483 -0.3662 -0.5181 -0.4706
  191SAPI   H7S22026   2.240   5.911   3.310 -2.7184 -0.5742 -1.4008
  191SAPI   C2822027   2.068   5.883   3.406 -0.0815  0.4554  0.3396
  191SAPI   H8R22028   1.981   5.929   3.356  0.1010  3.2722  2.3839
  191SAPI   C2922029   2.054   5.760   3.458  0.5525  1.0943 -0.2297
  191SAPI   H9R22030   1.958   5.706   3.458  1.1251 -0.0737  1.8899
  191SAPI  C21022031   2.163   5.668   3.517  0.4766 -0.2505 -0.0393
  191SAPI  H10R22032   2.261   5.715   3.495  0.4821 -0.2202  0.0476
  191SAPI  H10S22033   2.165   5.570   3.465  0.8483 -0.8236  1.0166
  191SAPI  C21122034   2.146   5.632   3.663  0.4334 -0.1878  0.0969
  191SAPI  H11R22035   2.100   5.709   3.727 -0.4885 -0.2704 -0.4510
  191SAPI  C21222036   2.165   5.515   3.719 -0.0370  0.6744 -0.2849
  191SAPI  H12R22037   2.142   5.510   3.826 -1.1536  0.0614 -0.5421
  191SAPI  C21322038   2.200   5.390   3.653  0.6075 -0.1281  0.6719
  191SAPI  H13R22039   2.162   5.386   3.549  0.7643 -0.4729  0.6261
  191SAPI  H13S22040   2.137   5.312   3.702  0.8162  0.2993  1.6459
  191SAPI  C21422041   2.344   5.368   3.652  0.2543 -0.1910  0.5046
  191SAPI  H14R22042   2.399   5.427   3.577 -0.4383 -1.0053 -0.6838
  191SAPI  C21522043   2.415   5.286   3.737 -0.2575 -0.0962  0.1939
  191SAPI  H15R22044   2.523   5.278   3.720 -0.1545  0.7465  0.3925
  191SAPI  C21622045   2.366   5.186   3.842  0.8082 -0.4963  0.7018
  191SAPI  H16R22046   2.444   5.109   3.859 -1.0779 -2.6270  0.0860
  191SAPI  H16S22047   2.279   5.122   3.817  1.2011  0.0561 -2.4830
  191SAPI  C21722048   2.347   5.252   3.977  0.3013  0.6219  0.0438
  191SAPI  H17R22049   2.250   5.305   3.971  1.6712  3.3376  0.4864
  191SAPI  H17S22050   2.428   5.325   3.999  1.1344 -0.4968  0.8324
  191SAPI  C21822051   2.341   5.147   4.089  0.2517  0.0646  0.0570
  191SAPI  H18R22052   2.438   5.092   4.088 -0.2513 -0.8451 -1.0680
  191SAPI  H18S22053   2.272   5.070   4.049  3.7532 -1.6749 -3.4023
  191SAPI  C21922054   2.336   5.202   4.231  0.0187 -0.2057  1.0846
  191SAPI  H19R22055   2.318   5.114   4.297 -2.4106 -0.4339  0.2203
  191SAPI  H19S22056   2.247   5.266   4.248 -0.3777  0.0772 -1.6441
  191SAPI  C22022057   2.460   5.266   4.283  0.0507  0.1850  0.0795
  191SAPI  H20R22058   2.452   5.257   4.394  0.6179  1.9571  0.2875
  191SAPI  H20S22059   2.455   5.373   4.255  1.1779  0.0337 -0.7438
  191SAPI  H20T22060   2.558   5.232   4.242  1.1352 -1.9911  3.9506
  191SAPI   C3322061   2.334   5.204   3.160 -0.1219 -0.0840 -0.3144
  191SAPI   H3X22062   2.394   5.112   3.148 -2.3562 -1.5786 -0.4933
  191SAPI   H3Y22063   2.257   5.201   3.081 -1.2493  0.8430  0.7007
  191SAPI   C3422064   2.263   5.200   3.290  0.0362  0.8947  0.4227
  191SAPI   H4X22065   2.220   5.297   3.323 -1.2282  0.0359  1.4208
  191SAPI   H4Y22066   2.329   5.164   3.372  0.8455  1.9902  0.2695
  191SAPI   C3522067   2.144   5.102   3.291  0.2471  0.1770 -0.2155
  191SAPI   H5X22068   2.184   5.002   3.264  1.5303 -0.4582  3.4723
  191SAPI   H5Y22069   2.073   5.148   3.218 -0.0269 -1.5530 -1.0964
  191SAPI   C3622070   2.085   5.093   3.436 -0.3326 -0.2075 -0.9253
  191SAPI   H6X22071   2.046   5.192   3.465 -1.9524 -1.5272  1.8429
  191SAPI   H6Y22072   2.167   5.074   3.508 -0.6261  0.6844 -0.3476
  191SAPI   C3722073   1.962   5.016   3.455  0.4643  0.2415  0.7707
  191SAPI   H7X22074   1.945   4.953   3.365  0.8372  0.8824  0.2404
  191SAPI   H7Y22075   1.875   5.085   3.445  1.6368  1.5466 -1.4981
  191SAPI   C3822076   1.960   4.938   3.585 -0.1878  0.0990 -0.4959
  191SAPI   H8X22077   2.055   4.879   3.587  0.3720  0.7480 -3.3134
  191SAPI   H8Y22078   1.874   4.872   3.609  0.1874 -0.5115 -0.7873
  191SAPI   C3922079   1.977   5.033   3.705 -0.2718 -0.3629 -0.1385
  191SAPI   H9X22080   1.877   5.082   3.706 -0.4043 -0.5198 -2.1388
  191SAPI   H9Y22081   2.049   5.115   3.686 -2.6765  2.2125  1.2104
  191SAPI  C31022082   2.010   4.976   3.841 -0.1862 -0.2443 -0.5494
  191SAPI  H10X22083   2.120   4.980   3.851 -0.1236 -0.8062 -0.9870
  191SAPI  H10Y22084   1.987   4.868   3.853  1.1096 -0.4054  0.6944
  191SAPI  C31122085   1.940   5.054   3.960  0.2774  0.2654 -0.0038
  191SAPI  H11X22086   1.972   5.019   4.061 -3.1518  1.1223  1.5072
  191SAPI  H11Y22087   1.830   5.041   3.954  0.1862  1.1741 -0.3398
  191SAPI  C31222088   1.953   5.207   3.955  0.1071  0.0126  0.1974
  191SAPI  H12X22089   1.961   5.241   3.849 -0.9116 -0.2695  0.0225
  191SAPI  H12Y22090   2.044   5.237   4.011 -0.6786  1.0440  0.9473
  191SAPI  C31322091   1.834   5.288   4.020 -0.2363 -0.0112 -0.3050
  191SAPI  H13X22092   1.744   5.254   3.965 -0.1522 -2.8058  1.0967
  191SAPI  H13Y22093   1.850   5.397   4.014 -0.2466 -0.0153 -0.4094
  191SAPI  C31422094   1.810   5.272   4.173  0.6548 -0.2368 -0.8724
  191SAPI  H14X22095   1.828   5.170   4.212  2.2018  0.6571  0.9220
  191SAPI  H14Y22096   1.713   5.321   4.194  1.6097  2.1598 -1.7088
  191SAPI  C31522097   1.895   5.359   4.265 -0.1463  0.0501 -0.0819
  191SAPI  H15X22098   1.897   5.464   4.229  4.3102  0.2168  0.0069
  191SAPI  H15Y22099   2.001   5.325   4.272 -0.0621 -0.3193 -2.5300
  191SAPI  C31622100   1.837   5.360   4.405  0.0461 -0.3985  0.0831
  191SAPI  H16X22101   1.841   5.258   4.450 -0.9779  0.3493  1.9835
  191SAPI  H16Y22102   1.729   5.384   4.396 -0.2078 -1.4758  0.0813
  191SAPI  C31722103   1.893   5.460   4.513 -0.0791  0.0035 -0.5056
  191SAPI  H17X22104   1.885   5.563   4.471  0.0824  0.8936  1.5046
  191SAPI  H17Y22105   1.999   5.440   4.541  0.3087  1.1738 -1.0693
  191SAPI  C31822106   1.808   5.441   4.647  0.0529  0.0029  0.6163
  191SAPI  H18X22107   1.834   5.514   4.727 -0.9483  1.4350 -0.3195
  191SAPI  H18Y22108   1.825   5.341   4.692  1.0033  0.0751  0.4453
  191SAPI  H18Z22109   1.701   5.454   4.621  0.5178  0.0622 -1.4194
  192SAPI   C1222110   3.706   2.610   2.522 -0.2906 -0.6178 -0.4436
  192SAPI    H222111   3.777   2.625   2.607 -0.3259 -3.5901  0.2204
  192SAPI    O222112   3.718   2.729   2.449 -0.3747 -0.0370  0.0794
  192SAPI   HO222113   3.813   2.741   2.436 -0.1179 -3.3836 -2.5960
  192SAPI   C1322114   3.747   2.489   2.444  0.0365 -0.1485  0.0267
  192SAPI    H322115   3.717   2.396   2.497 -1.1061  0.5084  0.5903
  192SAPI    O322116   3.890   2.475   2.428  0.0987  0.5257 -0.4176
  192SAPI   HO322117   3.904   2.384   2.399 -1.0766 -0.0352  0.6865
  192SAPI   C1422118   3.668   2.479   2.312 -0.5091 -0.4178  0.6679
  192SAPI    H422119   3.710   2.560   2.249  1.5270 -0.0062  2.4249
  192SAPI    O422120   3.699   2.370   2.231  0.3812  0.1946  0.6397
  192SAPI   HO422121   3.771   2.400   2.174  1.3381  0.8469  2.1328
  192SAPI   C1522122   3.512   2.503   2.328 -0.1256  0.0533 -0.8576
  192SAPI    H522123   3.482   2.396   2.341  0.7272 -0.6054 -3.6146
  192SAPI    O522124   3.452   2.542   2.207  0.4155 -0.8073 -0.1051
  192SAPI   HO522125   3.454   2.637   2.195  0.7028 -0.9989 -1.8229
  192SAPI   C1622126   3.458   2.583   2.462 -0.2863 -0.1024 -0.0156
  192SAPI    H622127   3.440   2.686   2.426 -1.2514  0.1143  1.0400
  192SAPI    O622128   3.339   2.535   2.513  0.4269 -0.0531 -0.1150
  192SAPI   HO622129   3.288   2.608   2.548  0.5451 -0.1847  0.3295
  192SAPI   C1122130   3.559   2.599   2.576 -0.0022 -0.0752 -0.0098
  192SAPI    H122131   3.548   2.510   2.642 -1.5574  0.0188 -0.1078
  192SAPI     P22132   3.518   2.711   2.827 -0.1170 -0.0720 -0.0550
  192SAPI   O1322133   3.408   2.616   2.856  0.1401  0.0328  0.1580
  192SAPI   O1422134   3.513   2.852   2.877 -0.4927  0.3550  0.5094
  192SAPI   O1222135   3.530   2.717   2.652  0.3724  0.0862 -0.4961
  192SAPI   O1122136   3.653   2.652   2.873  0.3467  0.3785 -0.2161
  192SAPI    C122137   3.675   2.514   2.917  0.2810 -0.0007  0.2856
  192SAPI    HA22138   3.583   2.452   2.919  0.6602 -0.7247 -1.9322
  192SAPI    HB22139   3.751   2.463   2.854 -0.3217 -1.4064  0.6553
  192SAPI    C222140   3.749   2.508   3.054  0.4235  0.3979  0.0896
  192SAPI    HS22141   3.704   2.422   3.107 -0.1483  0.6991  0.1056
  192SAPI   O2122142   3.724   2.622   3.126  0.1478 -0.4623 -0.1571
  192SAPI   C2122143   3.602   2.630   3.182  0.4748  0.4729  0.5189
  192SAPI   O2222144   3.511   2.545   3.172 -0.0665 -0.1191 -0.0826
  192SAPI   C2222145   3.606   2.753   3.282  0.2212  0.4983  0.6677
  192SAPI   H2R22146   3.657   2.834   3.224  1.8248 -0.8518  0.1257
  192SAPI   H2S22147   3.508   2.792   3.315 -0.0581  0.4242 -0.0601
  192SAPI    C322148   3.903   2.485   3.035  0.0937  0.2508 -0.7308
  192SAPI    HX22149   3.945   2.568   2.975 -0.2089  1.0996  0.2137
  192SAPI    HY22150   3.919   2.384   2.992  1.6116 -1.0761  2.5733
  192SAPI   O3122151   3.962   2.482   3.164 -0.4791  0.3427 -0.4437
  192SAPI   C3122152   3.967   2.358   3.222  0.4650 -0.3057 -0.4473
  192SAPI   O3222153   3.927   2.253   3.176  0.7125  0.2935 -0.1497
  192SAPI   C3222154   4.039   2.374   3.360  0.7397 -0.2203  0.3946
  192SAPI   H2X22155   3.966   2.430   3.423  0.4998 -0.8586  0.6946
  192SAPI   H2Y22156   4.129   2.435   3.339 -0.5425  0.8429 -2.5600
  192SAPI   C2322157   3.679   2.729   3.413 -0.3614  0.0458  0.4685
  192SAPI   H3R22158   3.778   2.678   3.405 -0.1706  0.4581  0.1856
  192SAPI   H3S22159   3.624   2.655   3.475  0.3862 -0.1350  0.9380
  192SAPI   C2422160   3.719   2.854   3.496 -0.0345 -0.5316 -0.0289
  192SAPI   H4R22161   3.787   2.923   3.442 -1.9654  1.1592 -0.4169
  192SAPI   H4S22162   3.772   2.804   3.580 -2.0159  1.0435  2.2659
  192SAPI   C2522163   3.604   2.931   3.550 -0.6635  0.0016  0.7182
  192SAPI   H5R22164   3.535   2.976   3.478  0.2181 -0.3285 -0.3674
  192SAPI   C2622165   3.585   2.956   3.681 -0.2926 -0.1612  0.4568
  192SAPI   H6R22166   3.493   3.010   3.710 -0.5133 -0.6531  0.6806
  192SAPI   C2722167   3.678   2.915   3.797 -0.0925 -0.2536 -0.5140
  192SAPI   H7R22168   3.669   3.002   3.865 -2.3811 -1.4166  0.8049
  192SAPI   H7S22169   3.784   2.914   3.763  0.1659 -2.8276  0.1553
  192SAPI   C2822170   3.640   2.787   3.868 -0.1826  0.2296 -0.4698
  192SAPI   H8R22171   3.567   2.719   3.822 -1.0714 -1.2789  2.8887
  192SAPI   C2922172   3.668   2.767   3.999 -0.6425  0.4543 -0.6360
  192SAPI   H9R22173   3.637   2.674   4.050 -0.9547  1.3637  0.9229
  192SAPI  C21022174   3.765   2.848   4.086  0.2428  0.0028  0.4051
  192SAPI  H10R22175   3.821   2.923   4.027 -0.6725 -0.2322 -0.8053
  192SAPI  H10S22176   3.843   2.773   4.111  0.0046 -0.5155 -0.3500
  192SAPI  C21122177   3.695   2.897   4.207  0.2093 -0.1903  0.1846
  192SAPI  H11R22178   3.634   2.987   4.188  0.3216 -0.2300 -0.3848
  192SAPI  C21222179   3.682   2.834   4.324  0.2246 -0.9055 -0.2764
  192SAPI  H12R22180   3.625   2.889   4.400 -0.4079 -0.2634 -1.1931
  192SAPI  C21322181   3.726   2.696   4.350 -0.6305  0.2649 -0.0207
  192SAPI  H13R22182   3.836   2.683   4.336 -0.3893  2.2920 -0.2087
  192SAPI  H13S22183   3.679   2.616   4.289 -0.5375  1.1615 -1.2900
  192SAPI  C21422184   3.696   2.679   4.498 -0.3576  0.1316 -0.3042
  192SAPI  H14R22185   3.728   2.761   4.563  0.4684  0.7018 -1.3889
  192SAPI  C21522186   3.636   2.570   4.560  0.8212  0.6203  0.1480
  192SAPI  H15R22187   3.617   2.575   4.668  0.0163  2.8110 -0.0457
  192SAPI  C21622188   3.588   2.443   4.501 -0.0040 -0.4846  0.2434
  192SAPI  H16R22189   3.646   2.421   4.409  1.7541 -2.7880  1.7927
  192SAPI  H16S22190   3.481   2.444   4.472 -0.1033  2.2425  0.4186
  192SAPI  C21722191   3.615   2.331   4.601  1.3842 -0.2158 -0.2481
  192SAPI  H17R22192   3.600   2.352   4.709 -1.3397 -2.5656 -0.0497
  192SAPI  H17S22193   3.723   2.311   4.585  1.2621 -0.3100 -0.9678
  192SAPI  C21822194   3.533   2.207   4.568 -0.5484  0.1595 -0.7266
  192SAPI  H18R22195   3.561   2.181   4.464  0.3957  0.5405 -0.5767
  192SAPI  H18S22196   3.423   2.217   4.561 -0.7163  0.9979  1.9494
  192SAPI  C21922197   3.561   2.077   4.655  0.0628  0.5757 -0.0444
  192SAPI  H19R22198   3.667   2.044   4.663 -0.1969 -0.2968 -0.1092
  192SAPI  H19S22199   3.504   1.994   4.609 -0.6933  0.0917  1.6777
  192SAPI  C22022200   3.516   2.095   4.802 -0.7442  0.6728 -0.4266
  192SAPI  H20R22201   3.607   2.140   4.849  0.1112 -2.0743  0.7379
  192SAPI  H20S22202   3.492   1.997   4.849 -2.2226  1.5139  0.6639
  192SAPI  H20T22203   3.428   2.163   4.807 -1.3738  0.0559 -2.4340
  192SAPI   C3322204   4.070   2.231   3.415  0.3183 -0.5294  0.1076
  192SAPI   H3X22205   4.158   2.192   3.361  1.3822  0.8369  0.8051
  192SAPI   H3Y22206   3.982   2.166   3.395 -1.2081  0.8013  2.0397
  192SAPI   C3422207   4.088   2.222   3.569 -0.2593 -0.8689  0.5675
  192SAPI   H4X22208   4.005   2.275   3.622  0.1724  0.7151 -0.2798
  192SAPI   H4Y22209   4.179   2.277   3.600 -1.7112  0.9972  1.7382
  192SAPI   C3522210   4.095   2.074   3.610  0.2412 -0.1931 -0.0182
  192SAPI   H5X22211   4.193   2.032   3.578  0.3593  1.0810 -1.4103
  192SAPI   H5Y22212   4.016   2.011   3.564 -0.1087  0.9363 -1.0040
  192SAPI   C3622213   4.080   2.059   3.759  0.7864  0.2066 -0.5631
  192SAPI   H6X22214   4.157   2.122   3.809  3.2166 -1.2923 -2.2348
  192SAPI   H6Y22215   4.086   1.955   3.796  0.3772  1.2705  2.8979
  192SAPI   C3722216   3.939   2.111   3.813  0.0572  0.8164  0.7567
  192SAPI   H7X22217   3.860   2.038   3.783  1.2124 -0.5891  1.0198
  192SAPI   H7Y22218   3.896   2.203   3.769 -1.7089 -0.1949  0.2672
  192SAPI   C3822219   3.939   2.147   3.963 -1.0375 -0.5668  0.2156
  192SAPI   H8X22220   3.865   2.227   3.986 -2.4330 -2.4163  2.7065
  192SAPI   H8Y22221   4.040   2.186   3.988 -0.9377  1.2554 -2.6644
  192SAPI   C3922222   3.904   2.026   4.051 -0.2677  0.3140  0.1395
  192SAPI   H9X22223   3.998   1.996   4.102 -0.1180 -0.7582 -0.7166
  192SAPI   H9Y22224   3.890   1.939   3.983  0.1144 -1.1655  1.8799
  192SAPI  C31022225   3.805   2.046   4.159 -0.2817 -0.5580  0.4358
  192SAPI  H10X22226   3.713   2.084   4.110  0.7772  0.9430 -0.4711
  192SAPI  H10Y22227   3.833   2.127   4.229  1.0517 -0.9212  0.3451
  192SAPI  C31122228   3.766   1.917   4.233 -0.2291  0.2175  0.2810
  192SAPI  H11X22229   3.702   1.849   4.173 -0.0131  1.6023 -1.6171
  192SAPI  H11Y22230   3.702   1.944   4.319 -0.2457  0.2970  0.2443
  192SAPI  C31222231   3.883   1.832   4.296 -0.1875 -0.2994 -1.1602
  192SAPI  H12X22232   3.949   1.801   4.212  0.3038 -1.6925 -0.3041
  192SAPI  H12Y22233   3.826   1.743   4.329  0.2338  0.0004  0.4201
  192SAPI  C31322234   3.949   1.905   4.407 -0.5758 -0.5767  0.1142
  192SAPI  H13X22235   3.886   1.899   4.499 -0.2832 -0.7893  0.3018
  192SAPI  H13Y22236   3.964   2.012   4.385  2.2132 -0.7693  0.7167
  192SAPI  C31422237   4.082   1.848   4.458 -0.7437 -0.5662  1.0982
  192SAPI  H14X22238   4.113   1.922   4.534 -2.8258 -0.9660  2.4041
  192SAPI  H14Y22239   4.156   1.847   4.374  0.7260  3.1333  2.1797
  192SAPI  C31522240   4.093   1.710   4.525  0.2952 -0.0696  0.1176
  192SAPI  H15X22241   4.202   1.689   4.535  0.8121  0.8550 -2.6579
  192SAPI  H15Y22242   4.069   1.635   4.446  3.2871 -1.5685  0.4704
  192SAPI  C31622243   4.006   1.697   4.651  0.2759  0.0341  0.6845
  192SAPI  H16X22244   3.901   1.724   4.627  0.1037 -0.4879  0.8451
  192SAPI  H16Y22245   4.038   1.771   4.727 -0.4355 -0.0990  1.1243
  192SAPI  C31722246   4.019   1.559   4.724  0.5883  0.7635  0.2607
  192SAPI  H17X22247   4.129   1.542   4.730  0.3343 -1.6586 -0.9025
  192SAPI  H17Y22248   3.969   1.487   4.656  1.0066  1.7872 -1.1849
  192SAPI  C31822249   3.951   1.555   4.858 -0.6161 -0.1762 -0.2737
  192SAPI  H18X22250   4.016   1.595   4.938 -1.4374  2.0861 -0.6694
  192SAPI  H18Y22251   3.944   1.446   4.880 -0.5692 -0.3762 -1.2021
  192SAPI  H18Z22252   3.852   1.605   4.866  0.2945  1.6625 -0.0170
  193SOD    SOD22253   4.489   6.626   0.556 -0.0179  0.2633  0.3366
  194SOD    SOD22254   1.199   0.371   7.127  0.0745  0.4463 -0.1532
  195SOD    SOD22255   4.577   3.538   0.012 -0.5612 -0.3384  0.0907
  196SOD    SOD22256   0.454   5.986   7.439  0.1556 -0.5127  0.1335
  197SOD    SOD22257   3.011   3.317   0.285  0.3720 -0.0296  0.1065
  198SOD    SOD22258   4.078   5.997   0.187  0.0786  0.1055 -0.1483
  199SOD    SOD22259   3.236   5.600   7.900 -0.2588 -0.2078 -0.0597
  200SOD    SOD22260   3.110   0.405   1.249  0.3549  0.3793  0.2520
  201SOD    SOD22261   2.348   6.850   7.656  0.2397 -0.4138 -0.2981
  202SOD    SOD22262   6.550   6.812   1.108 -0.4756 -0.0609 -0.0529
  203SOD    SOD22263   2.262   3.582   8.178  0.4607  0.2873  0.2835
  204SOD    SOD22264   2.098   2.752   6.986 -0.4303 -0.4728 -0.0808
  205SOD    SOD22265   4.416   1.546   0.392 -0.1563  0.0094 -0.0658
  206SOD    SOD22266   3.490   2.267   8.399 -0.7410 -0.4033 -0.7518
  207SOD    SOD22267   2.272   3.444   2.396 -0.0467  0.1786  0.0094
  208SOD    SOD22268   3.929   6.663   7.229  0.3618  0.2775 -0.2385
  209SOD    SOD22269   2.727   3.143   7.750  0.2767  0.2291  0.0550
  210SOD    SOD22270   1.641   5.529   2.455 -0.2114  0.4015  0.4456
  211SOD    SOD22271   2.623   6.153   1.171  0.2269 -0.5873 -0.1230
  212SOD    SOD22272   0.091   3.413   2.419  0.6133  0.2828 -0.2669
  213SOD    SOD22273   2.540   1.831   2.345  0.3566  0.2398  0.1806
  214SOD    SOD22274   6.185   5.794   8.583 -0.1839 -0.1657 -0.1261
  215SOD    SOD22275   3.395   0.784   7.381  0.2601 -0.2760  0.1133
  216SOD    SOD22276   5.288   4.420   8.006 -0.2714  0.0804 -0.2522
  217SOD    SOD22277   5.417   6.142   2.370 -0.5521  0.1243 -0.1575
  218SOD    SOD22278   2.479   4.830   2.430  0.1573 -0.2505 -0.2153
  219SOD    SOD22279   6.881   6.462   1.924 -0.2517  0.4553  0.0412
  220SOD    SOD22280   6.888   2.378   6.657 -0.0652 -0.5168  0.0228
  221SOD    SOD22281   1.816   3.893   8.546  0.6122 -0.1804 -0.0591
  222SOD    SOD22282   1.588   6.372   2.871 -0.0605  0.3107  0.4414
  223SOD    SOD22283   3.059   2.350   2.137  0.0273 -0.1225 -0.0238
  224SOD    SOD22284   5.600   2.606   1.351 -0.0880 -0.1728  0.2241
  225SOD    SOD22285   1.844   6.168   1.293  0.1139  0.4303 -0.1384
  226SOD    SOD22286   6.246   5.053   2.207  0.6631 -0.3345  0.5155
  227SOD    SOD22287   6.222   6.628   7.826  0.3675 -0.0846 -0.3749
  228SOD    SOD22288   1.045   5.053   1.913  0.0151  0.5090  0.3646
  229SOD    SOD22289   4.999   4.770   7.352 -0.3121  0.4041 -0.2005
  230SOD    SOD22290   5.979   1.420   7.051  0.2416 -0.1879 -0.3508
  231SOD    SOD22291   1.358   3.092   0.542  0.4242 -0.1945 -0.4924
  232SOD    SOD22292   0.888   5.628   2.544  0.2112 -0.0679 -0.1803
  233SOD    SOD22293   6.602   1.161   2.914 -0.3298  0.5923 -0.0220
  234CLA    CLA22294   5.178   0.572   1.156  0.1015  0.1616  0.2151
  235CLA    CLA22295   3.894   6.611   8.381 -0.1042  0.0213  0.3910
  236CLA    CLA22296   4.325   2.244   0.286 -0.3098 -0.1689 -0.3504
  237CLA    CLA22297   0.319   1.918   1.530 -0.0383 -0.1686  0.2085
  238CLA    CLA22298   1.655   6.618   1.111 -0.1941 -0.1835 -0.3968
  239CLA    CLA22299   5.600   0.909   8.111 -0.5855 -0.1599  0.2633
  240CLA    CLA22300   3.024   3.020   0.240  0.0233 -0.1835 -0.0737
  241CLA    CLA22301   3.431   4.659   1.078  0.0216  0.2494 -0.2854
  242CLA    CLA22302   0.314   5.145   2.163  0.1163 -0.0238  0.3751
  243CLA    CLA22303   6.380   1.711   7.634 -0.1906 -0.0998  0.1044
  244CLA    CLA22304   4.162   2.649   1.559  0.0627 -0.1206 -0.2993
  245CLA    CLA22305   0.996   6.117   2.053 -0.0612  0.3813 -0.0864
  246CLA    CLA22306   0.767   0.549   8.066 -0.0079  0.0312 -0.4762
  247CLA    CLA22307   1.564   3.842   1.780  0.0551 -0.1376 -0.0538
  248CLA    CLA22308   2.655   1.739   1.114  0.3232 -0.1985  0.1392
  249CLA    CLA22309   5.064   0.284   7.626 -0.0934  0.0464 -0.0532
  250CLA    CLA22310   3.014   4.657   1.018  0.2728  0.0737  0.0633
  251TIP3   OH222311   3.314   4.838   8.455  0.0043  0.0702 -0.0712
  251TIP3    H122312   3.354   4.906   8.509  0.1018  0.3719 -0.5208
  251TIP3    H222313   3.307   4.877   8.368 -1.0259 -0.0694 -0.0614
  252TIP3   OH222314   4.843   3.805   7.192  0.0787  0.0879 -0.7976
  252TIP3    H122315   4.921   3.755   7.218  0.0650  0.6921  0.4365
  252TIP3    H222316   4.825   3.775   7.103  1.5923 -0.2293 -1.0280
  253TIP3   OH222317   6.836   4.333   0.692 -0.7244 -0.0992 -0.0405
  253TIP3    H122318   6.870   4.266   0.751 -1.1196  0.9984  1.5054
  253TIP3    H222319   6.906   4.397   0.685 -0.4437 -0.5028 -1.3067
  254TIP3   OH222320   4.991   3.028   8.309  0.0776  0.0783 -0.3168
  254TIP3    H122321   5.074   2.985   8.291  0.7506  0.9808  0.5211
  254TIP3    H222322   4.936   3.008   8.233  2.0288  1.8600 -2.3123
  255TIP3   OH222323   4.124   3.097   7.767  0.1672  0.5225  0.1324
  255TIP3    H122324   4.206   3.111   7.719  0.4937 -1.9856 -0.2190
  255TIP3    H222325   4.078   3.031   7.716 -0.5501 -0.5433  2.0401
  256TIP3   OH222326   5.330   1.870   8.437 -0.2191  0.1936  0.1341
  256TIP3    H122327   5.417   1.870   8.475 -0.5747  2.2705  1.0933
  256TIP3    H222328   5.272   1.840   8.507 -0.5238  1.1377  0.3064
  257TIP3   OH222329   0.617   0.695   8.553  0.1847  0.0570 -0.1752
  257TIP3    H122330   0.565   0.761   8.508  0.1681  0.0365 -0.1860
  257TIP3    H222331   0.611   0.617   8.497  2.6375  0.8817 -1.7777
  258TIP3   OH222332   5.170   3.924   0.174  0.1911 -0.1923 -0.1304
  258TIP3    H122333   5.240   3.929   0.239 -1.4941  0.3688  1.7170
  258TIP3    H222334   5.089   3.923   0.225 -1.2502  1.0084 -2.2232
  259TIP3   OH222335   6.128   1.011   7.645 -0.2296 -0.1630 -0.5829
  259TIP3    H122336   6.126   0.935   7.587 -1.3040 -0.6457  0.0640
  259TIP3    H222337   6.101   0.977   7.730 -1.5228  1.0939 -0.4575
  260TIP3   OH222338   2.342   6.120   8.466 -0.3341  0.0202  0.5444
  260TIP3    H122339   2.269   6.143   8.523  0.1127 -0.1961  1.2139
  260TIP3    H222340   2.312   6.144   8.378 -2.4255 -2.8505  0.3453
  261TIP3   OH222341   4.337   0.285   8.248 -0.0408 -0.0043  0.4270
  261TIP3    H122342   4.370   0.333   8.172 -0.6596 -1.2067 -0.6407
  261TIP3    H222343   4.386   0.203   8.247 -1.7375 -1.0560 -0.1342
  262TIP3   OH222344   5.946   2.808   0.002 -0.0476  0.2622 -0.4203
  262TIP3    H122345   6.041   2.808   0.014 -0.1531 -0.3683  0.5953
  262TIP3    H222346   5.927   2.889  -0.045  1.0804 -0.0503 -1.4552
  263TIP3   OH222347   2.663   6.790   1.284  0.1814  0.7067  0.0025
  263TIP3    H122348   2.735   6.809   1.224  0.7715 -0.0835  0.4296
  263TIP3    H222349   2.585   6.827   1.242  0.7575  1.1481 -0.6992
  264TIP3   OH222350   5.219   4.251   0.866 -0.3227  0.4549  0.2655
  264TIP3    H122351   5.237   4.342   0.841  0.7148  0.6483  1.5935
  264TIP3    H222352   5.240   4.248   0.959 -0.8860 -1.0261  0.3625
  265TIP3   OH222353   5.833   1.481   2.429 -0.3139  0.0900  0.2005
  265TIP3    H122354   5.918   1.475   2.472  0.2803 -0.0062 -0.9642
  265TIP3    H222355   5.843   1.552   2.365 -1.4830  0.8988  0.8634
  266TIP3   OH222356   6.000   5.088   8.269  0.1813  0.0532  0.1137
  266TIP3    H122357   5.920   5.036   8.275  0.7412 -0.9476 -0.7049
  266TIP3    H222358   6.065   5.027   8.236  1.0500  1.1063 -0.1654
  267TIP3   OH222359   2.991   0.755   8.358  0.0628 -0.5118 -0.2065
  267TIP3    H122360   2.932   0.792   8.293  1.0846  0.2170 -0.7350
  267TIP3    H222361   3.079   0.774   8.326  0.8437  4.1889  3.5800
  268TIP3   OH222362   0.366   2.448   2.005  0.1270  0.2447  0.5378
  268TIP3    H122363   0.304   2.447   1.933  0.1858 -0.7814  0.4908
  268TIP3    H222364   0.313   2.432   2.083 -0.0090  1.8204  0.8073
  269TIP3   OH222365   1.393   0.417   1.432  0.5399  0.1697  0.2023
  269TIP3    H122366   1.479   0.456   1.448  0.5950  0.0435  0.2181
  269TIP3    H222367   1.355   0.406   1.520  0.3791  0.5103  0.1776
  270TIP3   OH222368   1.854   1.476   8.163  0.1351 -0.4359  0.5850
  270TIP3    H122369   1.778   1.471   8.221  0.2972 -0.8183  0.7746
  270TIP3    H222370   1.829   1.424   8.087 -0.6627  1.3005 -0.3953
  271TIP3   OH222371   5.344   4.023   8.140  0.2804  0.0920  0.1182
  271TIP3    H122372   5.296   3.968   8.077  0.6758 -0.8259  0.5998
  271TIP3    H222373   5.422   3.971   8.162  1.9180  1.8488 -1.2085
  272TIP3   OH222374   2.753   4.217   1.917  0.3116  0.0054 -0.5997
  272TIP3    H122375   2.786   4.198   2.004  0.9745 -0.8934 -1.0240
  272TIP3    H222376   2.832   4.238   1.866 -0.0486  0.3445 -1.0197
  273TIP3   OH222377   0.604   5.162   0.052  0.0183  0.4718  0.2453
  273TIP3    H122378   0.573   5.114  -0.025  1.4623 -0.1358  0.0144
  273TIP3    H222379   0.678   5.214   0.021  1.2040 -0.4646  1.3722
  274TIP3   OH222380   6.003   0.546   0.547 -0.5849  0.1141  0.1805
  274TIP3    H122381   5.970   0.623   0.501 -0.0205 -1.1582 -2.5426
  274TIP3    H222382   5.925   0.493   0.565 -0.6689 -0.1235 -0.8295
  275TIP3   OH222383   5.643   2.000   2.144  0.4294 -0.3644 -0.5760
  275TIP3    H122384   5.612   2.090   2.133  1.9849  0.4786  1.3832
  275TIP3    H222385   5.610   1.974   2.231  1.1987 -1.1528 -0.5073
  276TIP3   OH222386   5.564   4.630   8.347  0.4826  0.0360  0.2074
  276TIP3    H122387   5.507   4.678   8.407  1.7438 -1.3309  2.6687
  276TIP3    H222388   5.643   4.612   8.398  1.0774 -2.4589 -1.3819
  277TIP3   OH222389   4.500   6.696   1.820  0.0493 -0.3593 -0.0456
  277TIP3    H122390   4.461   6.711   1.906 -0.9337 -0.9843 -0.3690
  277TIP3    H222391   4.432   6.652   1.769  0.4326  0.4582 -1.3212
  278TIP3   OH222392   2.205   2.082   0.132 -0.1738  0.3179  0.5625
  278TIP3    H122393   2.212   2.004   0.188  0.7970  0.8173  1.1616
  278TIP3    H222394   2.281   2.135   0.155 -0.2771  0.9853 -0.5661
  279TIP3   OH222395   1.825   2.918   0.864 -0.4693 -0.4859  0.0431
  279TIP3    H122396   1.890   2.938   0.796 -0.4553 -0.7384 -0.0197
  279TIP3    H222397   1.767   2.994   0.864  1.5027  1.1836  2.1703
  280TIP3   OH222398   3.756   5.271   7.441 -0.2797 -0.5950  0.4051
  280TIP3    H122399   3.694   5.246   7.372 -0.4193  1.2912 -0.2170
  280TIP3    H222400   3.843   5.255   7.402 -0.3341  1.4952 -0.6962
  281TIP3   OH222401   0.489   1.623   6.875  0.2970 -0.5804  0.0368
  281TIP3    H122402   0.400   1.612   6.907 -0.4472 -1.6501 -2.1877
  281TIP3    H222403   0.498   1.717   6.861 -0.7792 -0.5410 -0.4482
  282TIP3   OH222404   5.531   6.051   1.947  0.1193 -0.2811  0.4452
  282TIP3    H122405   5.515   5.957   1.938  0.6542 -0.5913  2.3518
  282TIP3    H222406   5.618   6.065   1.909 -0.4864 -0.2900 -1.0216
  283TIP3   OH222407   3.097   1.310   2.308  0.0072 -0.1715  0.1958
  283TIP3    H122408   3.126   1.282   2.221  0.2131  0.2577  0.1206
  283TIP3    H222409   3.051   1.234   2.344 -0.1679 -0.3172 -0.3263
  284TIP3   OH222410   6.063   1.495   2.568  0.4773 -0.2291 -0.6849
  284TIP3    H122411   6.147   1.476   2.609 -0.6070 -1.1242  1.2377
  284TIP3    H222412   6.057   1.591   2.569  0.7618 -0.2039  0.7406
  285TIP3   OH222413   4.250   2.636   1.276 -0.2151  0.1007  0.2968
  285TIP3    H122414   4.221   2.617   1.365  0.9137  0.0721  0.6608
  285TIP3    H222415   4.177   2.607   1.221 -0.3247 -1.2486  1.1131
  286TIP3   OH222416   5.834   3.986   6.587  0.3991  0.1971  0.0046
  286TIP3    H122417   5.814   4.074   6.555 -2.1572 -0.4201 -0.3692
  286TIP3    H222418   5.816   3.989   6.681 -1.6886 -0.3183 -0.3071
  287TIP3   OH222419   2.430   4.896   0.532 -0.6731  0.0913  0.1301
  287TIP3    H122420   2.423   4.918   0.625 -0.9942  1.4406 -0.1914
  287TIP3    H222421   2.378   4.816   0.522 -0.0351 -0.4826  1.2309
  288TIP3   OH222422   6.704   4.198   2.665  0.7278 -0.2332  0.1440
  288TIP3    H122423   6.706   4.106   2.693 -0.9509 -0.5861 -0.7230
  288TIP3    H222424   6.736   4.196   2.575  0.5174 -0.0113  0.0628
  289TIP3   OH222425   1.992   6.120   0.838  0.4957  0.8298  0.1943
  289TIP3    H122426   1.924   6.162   0.890 -1.6274 -2.7216  0.6385
  289TIP3    H222427   2.033   6.057   0.898 -0.1434 -1.4349 -1.5811
  290TIP3   OH222428   0.009   2.716   1.136  0.4574 -0.3753 -0.2706
  290TIP3    H122429  -0.071   2.664   1.133  0.1427  0.1098 -0.3310
  290TIP3    H222430  -0.003   2.783   1.069  0.1103  0.8649  0.9830
  291TIP3   OH222431   1.297   3.530   1.136 -0.4250 -0.8122  0.0611
  291TIP3    H122432   1.314   3.462   1.201  1.1984  0.2972  0.8528
  291TIP3    H222433   1.282   3.610   1.187  2.3196  0.4019 -0.8422
  292TIP3   OH222434   1.170   6.184   0.491  0.1835 -0.7772 -0.1947
  292TIP3    H122435   1.195   6.138   0.411 -1.1674 -0.3612 -0.8966
  292TIP3    H222436   1.085   6.146   0.515  0.2945 -0.4804  0.7098
  293TIP3   OH222437   2.964   1.460   0.804 -0.1027  0.0845  0.5403
  293TIP3    H122438   3.038   1.435   0.749  0.4313 -0.9472  1.6867
  293TIP3    H222439   2.971   1.555   0.812 -0.0307  0.2233 -0.9174
  294TIP3   OH222440   3.096   6.787   7.563 -0.1448  0.4248 -0.3152
  294TIP3    H122441   3.030   6.834   7.615 -0.1716 -0.0586  0.0998
  294TIP3    H222442   3.048   6.755   7.487 -1.0432 -2.0884  1.1900
  295TIP3   OH222443   6.143   1.718   7.405 -0.4634 -0.0309  0.0955
  295TIP3    H122444   6.227   1.722   7.451  0.3757  0.4393 -1.4028
  295TIP3    H222445   6.079   1.700   7.474  0.9945 -1.5822  1.1219
  296TIP3   OH222446   5.849   3.508   7.637 -0.2395 -0.5422 -0.4368
  296TIP3    H122447   5.908   3.560   7.583 -0.4309 -0.6905 -0.7891
  296TIP3    H222448   5.769   3.499   7.585 -0.7560  0.0462  0.2252
  297TIP3   OH222449   6.018   3.206   2.052  0.2798 -0.2156 -0.1448
  297TIP3    H122450   6.083   3.210   2.122  1.2687 -1.9599 -0.9146
  297TIP3    H222451   5.936   3.186   2.098  0.5389  0.5517  0.6855
  298TIP3   OH222452   6.913   2.823   1.530  0.0421  0.1746  0.4889
  298TIP3    H122453   6.937   2.758   1.596  0.1221  0.0844  0.3711
  298TIP3    H222454   6.908   2.905   1.578  0.4902  0.1770  0.5288
  299TIP3   OH222455   3.985   5.881   1.382 -0.6579 -0.4778 -0.5623
  299TIP3    H122456   3.962   5.791   1.404  1.0461 -0.3687  2.1293
  299TIP3    H222457   3.972   5.930   1.463  1.8899  0.9504 -0.9076
  300TIP3   OH222458   6.634   5.282   0.868  0.3683 -0.4049 -0.0363
  300TIP3    H122459   6.708   5.249   0.920 -0.7369 -0.3054  1.6670
  300TIP3    H222460   6.638   5.232   0.787  1.9072 -0.8831  0.2970
  301TIP3   OH222461   3.765   2.436   0.360  0.5789 -0.0600  0.2650
  301TIP3    H122462   3.828   2.440   0.288  1.4355 -1.9508  0.8489
  301TIP3    H222463   3.707   2.363   0.338  1.4919 -1.3701  1.9163
  302TIP3   OH222464   0.614   2.079   0.442  0.1241 -0.0269  0.0683
  302TIP3    H122465   0.551   2.115   0.379  0.6846  2.4470  0.8310
  302TIP3    H222466   0.631   2.150   0.503 -0.0339 -2.1825  2.8086
  303TIP3   OH222467   3.571   0.633   1.107 -0.1580  0.1717  0.3748
  303TIP3    H122468   3.606   0.566   1.166 -3.5865 -2.3613 -0.1955
  303TIP3    H222469   3.620   0.621   1.026  0.4096 -0.5001  0.8037
  304TIP3   OH222470   3.225   0.271   8.555  0.1253 -0.1289  0.3405
  304TIP3    H122471   3.251   0.264   8.464  1.4417  2.8325  0.4057
  304TIP3    H222472   3.174   0.352   8.560  0.6457  0.1244  2.3353
  305TIP3   OH222473   4.631   2.731   7.926 -0.9730 -0.3495 -0.5288
  305TIP3    H122474   4.689   2.801   7.897  0.2532 -1.8760 -1.9140
  305TIP3    H222475   4.545   2.772   7.930 -0.6195  0.8242 -3.0467
  306TIP3   OH222476   2.777   0.962   7.304  0.1088 -0.5532 -0.1253
  306TIP3    H122477   2.728   0.920   7.375 -1.5337  1.8798  0.2945
  306TIP3    H222478   2.771   0.901   7.231 -1.7420 -1.2998  0.5929
  307TIP3   OH222479   5.674   0.455   2.076  0.2121  0.6688 -0.3758
  307TIP3    H122480   5.672   0.490   1.987  0.6826 -1.2188 -1.1744
  307TIP3    H222481   5.584   0.464   2.107 -0.0319  1.0499 -1.1733
  308TIP3   OH222482   0.320   5.324   0.023 -0.6218  0.4751  0.0378
  308TIP3    H122483   0.235   5.286   0.047 -1.8360  3.0471  0.0585
  308TIP3    H222484   0.350   5.368   0.102 -0.0494  0.9637 -0.4416
  309TIP3   OH222485   6.821   1.572   7.699  0.0930 -0.0149  0.4596
  309TIP3    H122486   6.795   1.664   7.690 -2.3053 -0.7649 -1.7881
  309TIP3    H222487   6.816   1.554   7.793  1.0145  2.2050  0.9821
  310TIP3   OH222488   1.772   6.526   0.034 -0.2468  0.6554  0.2068
  310TIP3    H122489   1.693   6.564   0.072 -0.8753  1.2854 -1.6286
  310TIP3    H222490   1.844   6.576   0.072 -0.8197  0.9467  0.9120
  311TIP3   OH222491   6.213   1.098   1.924  0.1778  0.4683 -0.4364
  311TIP3    H122492   6.279   1.054   1.976  1.6645  1.7713 -1.1256
  311TIP3    H222493   6.199   1.041   1.849 -1.2014 -0.9051  0.8065
  312TIP3   OH222494   1.304   1.189   1.377 -0.1520  0.1428  0.1762
  312TIP3    H122495   1.227   1.186   1.435 -0.3359  2.1047  0.1018
  312TIP3    H222496   1.267   1.183   1.289 -0.0993 -0.2564  0.1809
  313TIP3   OH222497   6.594   1.481   8.274 -0.6450  0.1938 -0.1579
  313TIP3    H122498   6.594   1.393   8.313 -0.1711  0.3186  0.1300
  313TIP3    H222499   6.679   1.518   8.298 -0.8899  0.7780 -0.1718
  314TIP3   OH222500   5.818   6.090   1.870  0.0411  0.4197 -0.1399
  314TIP3    H122501   5.849   6.151   1.937  1.8853  0.9437 -1.4020
  314TIP3    H222502   5.838   6.004   1.905  1.5737  0.7090 -0.2355
  315TIP3   OH222503   5.397   5.223   0.723 -0.3311  0.1875 -0.1495
  315TIP3    H122504   5.353   5.307   0.736  1.1429  0.8814  0.4828
  315TIP3    H222505   5.329   5.158   0.742 -1.4039  1.2151 -0.3244
  316TIP3   OH222506   2.464   3.510   1.872  0.2444  0.0214 -0.2717
  316TIP3    H122507   2.443   3.579   1.809 -0.8868 -0.5654 -0.5628
  316TIP3    H222508   2.556   3.524   1.893  0.8318 -0.0891 -2.4975
  317TIP3   OH222509   1.356   1.260   1.709 -0.4124 -0.5330  0.1394
  317TIP3    H122510   1.434   1.212   1.737  0.7797  0.2168 -1.7000
  317TIP3    H222511   1.330   1.216   1.628 -1.7032 -0.5205  0.5247
  318TIP3   OH222512   2.187   0.250   0.952 -0.0506  0.9744 -0.1855
  318TIP3    H122513   2.137   0.235   0.872 -0.3608 -2.4969  0.5090
  318TIP3    H222514   2.121   0.259   1.020  0.1699 -0.3090  0.2364
  319TIP3   OH222515   0.927   2.183   1.009  0.5231 -0.2544  0.0511
  319TIP3    H122516   0.986   2.121   1.052  0.3654 -0.5510 -0.1599
  319TIP3    H222517   0.981   2.222   0.939  0.6025 -0.1986  0.1426
  320TIP3   OH222518   0.401   3.788   8.211 -0.1888  0.0046  0.3127
  320TIP3    H122519   0.414   3.882   8.200 -1.4441 -0.0996 -2.8931
  320TIP3    H222520   0.306   3.778   8.224 -0.2090 -0.8704 -0.4185
  321TIP3   OH222521   1.442   4.757   1.836 -0.4382  0.5493 -0.5620
  321TIP3    H122522   1.520   4.779   1.784 -0.0423  0.2035 -0.1233
  321TIP3    H222523   1.426   4.665   1.818  0.2207  0.1875  0.5735
  322TIP3   OH222524   3.939   3.319   2.407 -0.5129 -0.2449 -0.0641
  322TIP3    H122525   3.864   3.295   2.353 -0.6740 -1.5312  0.7038
  322TIP3    H222526   3.921   3.281   2.493  0.7179 -0.0373  0.3064
  323TIP3   OH222527   4.525   3.709   8.179  0.3034 -0.3096  0.4639
  323TIP3    H122528   4.523   3.618   8.151  0.6298  0.6329 -3.0541
  323TIP3    H222529   4.618   3.729   8.192  0.3458 -0.1522 -0.0595
  324TIP3   OH222530   6.317   6.000   0.125  0.4748 -0.1955  0.6520
  324TIP3    H122531   6.317   6.095   0.138 -1.6472 -0.0971  0.2702
  324TIP3    H222532   6.343   5.965   0.210 -0.2005  0.7038  1.2517
  325TIP3   OH222533   5.384   4.693   7.078  0.4411  0.5987  0.1396
  325TIP3    H122534   5.387   4.695   6.982  0.3206 -0.9696  0.0876
  325TIP3    H222535   5.290   4.687   7.098  0.4706  0.8589  0.3565
  326TIP3   OH222536   2.300   2.735   1.278  0.0518  0.0828 -0.4122
  326TIP3    H122537   2.386   2.695   1.291  0.1157 -0.0003 -1.0466
  326TIP3    H222538   2.283   2.783   1.359  0.5383 -0.1899 -0.1440
  327TIP3   OH222539   3.457   5.695   7.875 -0.3648 -0.1824  0.4475
  327TIP3    H122540   3.517   5.725   7.808  1.6063 -0.5077  1.9633
  327TIP3    H222541   3.450   5.769   7.936 -0.9438 -0.4047  0.6604
  328TIP3   OH222542   4.670   1.576   0.395  0.0064 -0.0948 -0.3298
  328TIP3    H122543   4.708   1.518   0.329  0.5418  0.2507 -0.3326
  328TIP3    H222544   4.693   1.536   0.478 -0.9365 -0.6995 -0.3421
  329TIP3   OH222545   4.164   3.857   7.835  0.3441 -0.6649 -0.5969
  329TIP3    H122546   4.150   3.885   7.925  0.0383 -1.1336 -0.4938
  329TIP3    H222547   4.103   3.784   7.823 -0.4844  0.1697 -1.5652
  330TIP3   OH222548   6.297   6.614   2.246  0.0117  0.1981 -0.1779
  330TIP3    H122549   6.223   6.561   2.218 -0.6438  0.4483  1.0287
  330TIP3    H222550   6.353   6.553   2.294  0.2761  0.1567 -0.5321
  331TIP3   OH222551   4.881   3.204   1.277  0.1380  0.2961 -0.0574
  331TIP3    H122552   4.920   3.178   1.360 -0.1638  2.0422  0.6548
  331TIP3    H222553   4.791   3.225   1.297 -0.6646 -1.6063 -1.3132
  332TIP3   OH222554   2.382   1.055   8.048 -0.1147 -0.4086  0.1558
  332TIP3    H122555   2.298   1.099   8.062 -0.3573 -0.7655 -0.1557
  332TIP3    H222556   2.428   1.063   8.132  0.1854  1.1306 -0.1341
  333TIP3   OH222557   5.729   6.708   8.268  1.1406  0.2037  0.0232
  333TIP3    H122558   5.811   6.702   8.318 -0.1503  1.3299  2.4758
  333TIP3    H222559   5.723   6.800   8.243  0.7925  0.0483 -0.4755
  334TIP3   OH222560   2.743   2.701   8.458 -0.2176 -0.0176  0.6973
  334TIP3    H122561   2.806   2.745   8.516 -0.3145 -0.1193  0.8812
  334TIP3    H222562   2.658   2.711   8.502 -0.2334 -0.4367  0.7711
  335TIP3   OH222563   1.273   4.808   3.259  0.3452 -0.0421 -0.7880
  335TIP3    H122564   1.368   4.816   3.247  0.6669 -0.4499  1.0356
  335TIP3    H222565   1.241   4.898   3.260  0.5034  0.0671 -2.6101
  336TIP3   OH222566   1.964   1.088   7.454  0.4754 -0.0583  0.0728
  336TIP3    H122567   1.971   1.065   7.361 -0.5411 -2.4482  0.5067
  336TIP3    H222568   2.048   1.060   7.491  1.2270  1.6807 -0.2084
  337TIP3   OH222569   4.412   5.364   8.081  0.2773 -0.3502  0.1773
  337TIP3    H122570   4.461   5.422   8.138  3.0572  0.1100 -2.4411
  337TIP3    H222571   4.330   5.411   8.063  0.9833  1.1740  0.8011
  338TIP3   OH222572   4.039   6.388   7.646  0.0449  0.5753  0.1197
  338TIP3    H122573   4.093   6.398   7.567  0.8997 -1.5479  0.3837
  338TIP3    H222574   4.102   6.368   7.715 -0.9373 -0.3704  0.7579
  339TIP3   OH222575   0.501   0.068   1.348  0.0276  0.5446  0.1916
  339TIP3    H122576   0.526   0.072   1.256  2.3944 -0.9643  0.6738
  339TIP3    H222577   0.419   0.019   1.348 -2.4033  4.2109 -1.3497
  340TIP3   OH222578   0.820   5.355   7.968 -0.3094 -0.6798  0.5240
  340TIP3    H122579   0.759   5.407   8.020 -2.2097 -1.7609 -0.5128
  340TIP3    H222580   0.776   5.271   7.956 -0.0869 -0.4608 -2.9043
  341TIP3   OH222581   6.634   6.189   7.268 -0.5470  0.8366 -0.3151
  341TIP3    H122582   6.587   6.188   7.351  0.0086  1.2942  0.0186
  341TIP3    H222583   6.673   6.102   7.261 -1.0346  0.6229 -0.3526
  342TIP3   OH222584   6.896   1.626   1.791  0.2902 -0.4443  0.8254
  342TIP3    H122585   6.915   1.692   1.725  0.8261  0.9873  2.3501
  342TIP3    H222586   6.811   1.589   1.765 -0.1512  1.0273  0.0659
  343TIP3   OH222587   6.337   6.459   2.001  0.2970  0.1276 -0.1810
  343TIP3    H122588   6.371   6.374   2.030  0.0342  0.0865  0.0050
  343TIP3    H222589   6.408   6.521   2.020  1.5599 -0.4224 -2.6639
  344TIP3   OH222590   2.468   5.911   7.287  0.2037  0.2637  0.6658
  344TIP3    H122591   2.383   5.905   7.243 -0.1814  0.4571  1.3541
  344TIP3    H222592   2.532   5.916   7.216 -0.2005 -1.6633  0.1236
  345TIP3   OH222593   6.061   0.101   7.078 -0.4743  0.2218  0.7472
  345TIP3    H122594   6.025   0.156   7.009  0.1588 -0.5159 -0.2090
  345TIP3    H222595   6.156   0.117   7.073 -0.0872 -2.0651 -0.6255
  346TIP3   OH222596   1.586   0.662   7.817  0.0734 -0.0856  0.3177
  346TIP3    H122597   1.601   0.612   7.897 -0.5705 -1.0130 -0.1365
  346TIP3    H222598   1.492   0.655   7.801  0.3563 -0.8412 -1.1271
  347TIP3   OH222599   4.174   4.969   1.300 -0.7893 -0.2353 -0.4099
  347TIP3    H122600   4.103   4.907   1.280 -2.0981  0.8552  0.6826
  347TIP3    H222601   4.215   4.933   1.378 -0.6793 -0.4086 -0.5447
  348TIP3   OH222602   5.994   0.266   1.918  0.1043 -0.0194 -0.6531
  348TIP3    H122603   5.980   0.328   1.846 -1.7568 -0.2801 -0.5616
  348TIP3    H222604   6.073   0.217   1.892  0.1819  0.7300 -1.9091
  349TIP3   OH222605   2.886   1.487   7.242  0.2891 -0.2993  0.0837
  349TIP3    H122606   2.873   1.574   7.203  0.2336 -1.2485 -2.1619
  349TIP3    H222607   2.981   1.477   7.246  0.2962 -0.3323 -0.1447
  350TIP3   OH222608   1.711   2.645   0.848  0.0292 -0.5607 -0.3265
  350TIP3    H122609   1.656   2.689   0.783 -0.2692  0.4692  0.5839
  350TIP3    H222610   1.786   2.703   0.859 -0.0175 -0.6206  0.3667
  351TIP3   OH222611   4.747   2.034   2.639  0.2082 -0.8188 -0.1694
  351TIP3    H122612   4.689   2.077   2.702  1.2442  0.2398  0.0814
  351TIP3    H222613   4.766   1.949   2.680 -0.6625 -0.9340  0.0261
  352TIP3   OH222614   6.452   5.060   8.559  0.5138 -0.3421  0.0036
  352TIP3    H122615   6.526   5.118   8.542  0.5505 -0.1625  0.7220
  352TIP3    H222616   6.440   5.011   8.478  0.8607  0.2491 -0.4116
  353TIP3   OH222617   2.054   2.274   0.254 -0.0952  0.4123  0.2139
  353TIP3    H122618   2.065   2.185   0.219 -2.4954 -0.3887  1.2640
  353TIP3    H222619   2.134   2.290   0.305 -0.0702 -1.6112  0.9124
  354TIP3   OH222620   5.827   4.937   0.318  0.0988  0.1951 -0.0861
  354TIP3    H122621   5.800   4.884   0.394 -1.5049  1.1346  0.0483
  354TIP3    H222622   5.920   4.952   0.331 -0.1196  0.2567  1.6641
  355TIP3   OH222623   3.688   3.678   8.166  0.4396  0.3716  0.2094
  355TIP3    H122624   3.757   3.738   8.193 -0.2415  2.1769 -1.8092
  355TIP3    H222625   3.720   3.640   8.084 -0.5322  0.4714 -0.2280
  356TIP3   OH222626   6.015   5.909   0.098 -0.9725 -0.3942 -0.2953
  356TIP3    H122627   5.920   5.910   0.087 -1.1098 -1.0794  0.7250
  356TIP3    H222628   6.034   5.985   0.152 -0.8477  0.1682 -1.1171
  357TIP3   OH222629   5.973   4.246   0.033 -0.0958  0.0539  0.0310
  357TIP3    H122630   6.065   4.225   0.050 -0.2016 -0.9530 -0.5920
  357TIP3    H222631   5.973   4.285  -0.054 -0.2823 -0.0562 -0.0176
  358TIP3   OH222632   5.262   2.887   7.508  0.2732 -0.5207 -0.4550
  358TIP3    H122633   5.253   2.950   7.436 -1.4745  0.0155  0.1727
  358TIP3    H222634   5.213   2.810   7.479  0.4534 -0.7080 -0.2668
  359TIP3   OH222635   3.470   4.304   1.211 -0.3988 -0.0234  0.0151
  359TIP3    H122636   3.468   4.396   1.236 -1.7919 -0.3361  1.1299
  359TIP3    H222637   3.396   4.264   1.257 -0.6424 -1.4392 -1.5041
  360TIP3   OH222638   5.791   6.568   1.270 -0.0660 -0.1042 -0.1112
  360TIP3    H122639   5.791   6.626   1.194 -1.4651 -1.1493 -0.9371
  360TIP3    H222640   5.776   6.481   1.235 -1.9167 -0.4794  1.4247
  361TIP3   OH222641   4.517   4.089   1.541 -0.4923 -0.2071 -0.3228
  361TIP3    H122642   4.456   4.017   1.523 -1.9357  1.5116 -3.2596
  361TIP3    H222643   4.572   4.094   1.462  1.6836  0.0071  1.1325
  362TIP3   OH222644   6.840   3.050   8.322 -0.1637  0.2014 -1.0474
  362TIP3    H122645   6.764   3.065   8.265  0.3312 -0.9946 -2.0792
  362TIP3    H222646   6.915   3.071   8.267  0.3816 -2.0515 -1.2804
  363TIP3   OH222647   6.487   2.079   0.139  0.1140 -0.5357  0.1845
  363TIP3    H122648   6.466   2.089   0.232  1.5330  1.4964  0.3779
  363TIP3    H222649   6.480   2.168   0.104  2.3877 -0.7336 -0.9735
  364TIP3   OH222650   5.846   2.014   6.796  0.3079 -0.2741  0.1274
  364TIP3    H122651   5.910   2.062   6.849 -0.3608  0.3841  0.3529
  364TIP3    H222652   5.823   1.937   6.849  2.9614 -2.0833 -1.1155
  365TIP3   OH222653   0.342   2.840   8.551 -0.4089  0.0751 -0.6786
  365TIP3    H122654   0.299   2.918   8.517 -1.9777 -1.2764 -1.9736
  365TIP3    H222655   0.273   2.791   8.595  0.6000 -0.4949  0.3471
  366TIP3   OH222656   4.142   4.215   7.994  0.0735 -0.2110  0.4625
  366TIP3    H122657   4.097   4.283   7.944 -1.9317 -1.3780  0.5689
  366TIP3    H222658   4.136   4.244   8.085  0.0616 -0.0779  0.4192
  367TIP3   OH222659   1.391   4.205   0.858  0.6014  0.0450  0.3935
  367TIP3    H122660   1.398   4.296   0.828  0.1950 -0.7064 -2.1871
  367TIP3    H222661   1.482   4.177   0.870  0.7180  0.9135  1.7691
  368TIP3   OH222662   4.411   1.347   1.458 -0.0949 -0.1032 -0.0482
  368TIP3    H122663   4.494   1.387   1.486  0.1093 -0.8507  0.4471
  368TIP3    H222664   4.427   1.253   1.464 -0.7729 -0.2625 -0.5938
  369TIP3   OH222665   5.071   3.269   0.551  0.1338  0.2230  0.0574
  369TIP3    H122666   5.027   3.351   0.530 -3.8560 -1.7152  0.0441
  369TIP3    H222667   5.068   3.265   0.647  2.0132  0.8349  0.1856
  370TIP3   OH222668   2.298   4.554   0.829 -0.2589  0.0935 -0.2505
  370TIP3    H122669   2.272   4.519   0.914 -0.3413  0.2930 -0.1940
  370TIP3    H222670   2.284   4.481   0.768  1.2904 -0.5592  0.1411
  371TIP3   OH222671   4.776   6.733   1.067 -0.3550  0.5750  0.1440
  371TIP3    H122672   4.702   6.782   1.101  0.6689  1.4478  1.1902
  371TIP3    H222673   4.850   6.758   1.122  0.7158 -0.3289 -0.8056
  372TIP3   OH222674   0.626   4.023   7.158  0.7443  0.2581  0.2332
  372TIP3    H122675   0.575   4.068   7.091  3.1142  1.0510 -1.1550
  372TIP3    H222676   0.652   3.941   7.117  0.3046 -0.3081  1.0624
  373TIP3   OH222677   1.341   5.404   2.279 -0.5016  0.1522 -0.5508
  373TIP3    H122678   1.380   5.374   2.197  3.0684  0.6509  0.7890
  373TIP3    H222679   1.323   5.323   2.327 -1.1019 -0.0958 -1.1764
  374TIP3   OH222680   2.975   0.216   7.505  0.0085 -0.2359 -0.0372
  374TIP3    H122681   3.070   0.209   7.512  0.0897  0.0286 -0.7923
  374TIP3    H222682   2.954   0.174   7.422 -0.2106  2.3379 -1.3666
  375TIP3   OH222683   6.729   5.869   3.302  0.0108  0.0394  0.7285
  375TIP3    H122684   6.747   5.861   3.208  0.2079 -0.5606  0.8145
  375TIP3    H222685   6.785   5.804   3.343  0.1861  0.5424  1.2969
  376TIP3   OH222686   6.114   3.967   2.000  0.0154 -0.7692  0.1285
  376TIP3    H122687   6.040   3.997   1.949  0.0477  0.6281  0.8534
  376TIP3    H222688   6.189   3.972   1.940  0.3501  2.3712  0.6419
  377TIP3   OH222689   2.312   2.848   1.022  0.0325 -0.2763  0.1721
  377TIP3    H122690   2.323   2.823   1.114 -1.8736 -0.2403  0.4366
  377TIP3    H222691   2.365   2.927   1.013  0.0166 -0.1171  1.3144
  378TIP3   OH222692   2.072   5.629   0.471 -0.2512  0.3238  0.0680
  378TIP3    H122693   2.080   5.707   0.526 -0.2604 -0.8345  1.7729
  378TIP3    H222694   2.026   5.659   0.393  0.0857  2.0946  0.5183
  379TIP3   OH222695   0.575   2.358   0.473  0.2504 -0.6651  1.0558
  379TIP3    H122696   0.597   2.366   0.380  0.0024  0.6736  1.0970
  379TIP3    H222697   0.572   2.448   0.505 -0.0057 -1.0954  2.2886
  380TIP3   OH222698   6.001   4.466   7.219  0.0763  0.1306 -0.7356
  380TIP3    H122699   5.925   4.522   7.206  0.1896  0.1093 -1.5592
  380TIP3    H222700   6.077   4.523   7.205  0.1929 -0.5571 -3.3111
  381TIP3   OH222701   6.731   5.860   1.546  0.3505  0.3561  0.3195
  381TIP3    H122702   6.762   5.839   1.458  0.5898  0.3962  0.3934
  381TIP3    H222703   6.669   5.790   1.567 -1.2372  1.3982 -0.6616
  382TIP3   OH222704   1.250   2.525   0.253  0.4969  0.1308 -0.1332
  382TIP3    H122705   1.281   2.604   0.208 -0.2908  0.1309 -0.7029
  382TIP3    H222706   1.293   2.453   0.206 -1.3498  0.0488 -1.8327
  383TIP3   OH222707   1.561   4.111   0.514 -0.0702  0.4531  0.9138
  383TIP3    H122708   1.540   4.065   0.595 -0.1105  0.6312  1.0035
  383TIP3    H222709   1.612   4.187   0.542  0.5854  0.1006  0.7128
  384TIP3   OH222710   1.478   3.701   2.329 -0.6043  0.0662  0.2006
  384TIP3    H122711   1.403   3.727   2.382  0.3533  0.4618  1.4292
  384TIP3    H222712   1.455   3.726   2.240 -1.6492  0.8223  0.6622
  385TIP3   OH222713   2.544   0.183   0.576  0.0736 -0.2270 -0.4682
  385TIP3    H122714   2.570   0.220   0.660 -0.8650  0.0096 -0.2681
  385TIP3    H222715   2.547   0.256   0.514 -1.0416  0.0349 -0.2340
  386TIP3   OH222716   0.885   5.043   0.403 -0.1868 -0.2488  0.0182
  386TIP3    H122717   0.951   5.017   0.339  0.3464  0.6944  0.1616
  386TIP3    H222718   0.906   4.993   0.481 -0.8807 -1.4571 -0.5391
  387TIP3   OH222719   0.405   0.588   8.114 -0.6076  0.2592 -0.4955
  387TIP3    H122720   0.486   0.544   8.086 -0.9770 -0.1801 -0.8957
  387TIP3    H222721   0.423   0.681   8.104 -1.3619  0.1573 -4.2170
  388TIP3   OH222722   0.507   1.433   1.259 -0.6128 -0.1373  0.0621
  388TIP3    H122723   0.422   1.408   1.295 -0.5304  0.6348  0.8309
  388TIP3    H222724   0.500   1.527   1.244  0.3756  0.1107  0.9643
  389TIP3   OH222725   0.843   3.071   8.573 -0.1223 -0.1788 -0.0661
  389TIP3    H122726   0.837   3.131   8.647 -0.0900 -0.0021 -0.2057
  389TIP3    H222727   0.775   3.006   8.589  1.0424 -1.1829  1.0505
  390TIP3   OH222728   2.345   0.701   0.047  0.7870  0.4641  0.5054
  390TIP3    H122729   2.389   0.661   0.122 -0.8280 -1.3400  0.5565
  390TIP3    H222730   2.260   0.728   0.081  0.3746  0.4144 -0.4632
  391TIP3   OH222731   3.918   0.639   1.838 -0.1276  0.3303 -0.4635
  391TIP3    H122732   3.838   0.690   1.832 -0.6375 -0.4223 -0.1866
  391TIP3    H222733   3.979   0.695   1.886  0.2724  1.8123 -2.5584
  392TIP3   OH222734   4.604   1.831   8.199  0.7759  0.2323  0.0418
  392TIP3    H122735   4.697   1.814   8.182  0.8155 -0.6629  0.9991
  392TIP3    H222736   4.604   1.874   8.285  0.4139  1.9025 -0.7698
  393TIP3   OH222737   4.587   4.446   8.071 -0.0458 -0.3079  0.6048
  393TIP3    H122738   4.514   4.472   8.127  0.0334 -0.3319  0.7181
  393TIP3    H222739   4.639   4.525   8.060 -0.7298  0.0194 -0.4506
  394TIP3   OH222740   2.572   4.536   0.855  0.3121  0.0428  0.0822
  394TIP3    H122741   2.478   4.545   0.841  0.1395 -2.2588 -0.7716
  394TIP3    H222742   2.582   4.532   0.950 -0.3577  0.8737  0.2055
  395TIP3   OH222743   1.748   4.309   7.552 -1.1951 -0.6179 -0.2011
  395TIP3    H122744   1.810   4.302   7.479 -1.6512 -0.8044 -0.5736
  395TIP3    H222745   1.721   4.219   7.570  0.1061 -0.7703  1.2613
  396TIP3   OH222746   4.845   1.901   1.137 -0.1393 -0.2416  0.1240
  396TIP3    H122747   4.871   1.827   1.081 -0.9069  0.8533 -1.7966
  396TIP3    H222748   4.749   1.896   1.138 -0.1727  0.4754  0.3470
  397TIP3   OH222749   6.909   0.084   7.757  0.0537  0.3313 -0.0556
  397TIP3    H122750   6.894   0.064   7.664  0.0647 -0.6815  0.1447
  397TIP3    H222751   6.966   0.161   7.756  0.0045  0.3691 -0.8857
  398TIP3   OH222752   4.317   2.677   1.857  0.0838 -0.3419 -0.3794
  398TIP3    H122753   4.255   2.653   1.927  0.9152 -0.5314  0.3148
  398TIP3    H222754   4.264   2.679   1.778 -0.8638 -0.2518  0.2381
  399TIP3   OH222755   0.229   0.967   8.367  0.2329  0.1572  0.1703
  399TIP3    H122756   0.194   0.881   8.392  0.5942  0.0114  0.1808
  399TIP3    H222757   0.274   0.950   8.284  0.0565  0.3984  0.0248
  400TIP3   OH222758   0.567   1.709   1.171 -0.8292 -0.4008 -0.2946
  400TIP3    H122759   0.601   1.758   1.247 -0.2214 -1.2016 -0.0392
  400TIP3    H222760   0.475   1.734   1.167 -0.8602 -0.2977  0.6824
  401TIP3   OH222761   5.323   4.854   0.574  0.2478 -0.1487  0.6648
  401TIP3    H122762   5.356   4.792   0.639 -0.3943 -2.1291 -0.7944
  401TIP3    H222763   5.378   4.840   0.497 -0.3026  0.6670  0.1029
  402TIP3   OH222764   5.877   4.771   1.019  0.3162 -0.0156 -0.3850
  402TIP3    H122765   5.835   4.705   0.964  1.3143 -0.6318 -0.4193
  402TIP3    H222766   5.826   4.851   1.002 -0.2729 -0.5288 -1.1171
  403TIP3   OH222767   0.973   0.901   8.175 -0.2371 -0.6139 -0.2446
  403TIP3    H122768   0.959   0.813   8.140 -0.5142 -0.1941 -1.2351
  403TIP3    H222769   0.994   0.954   8.098 -0.0363  0.1762  0.3451
  404TIP3   OH222770   5.097   1.725   0.672  0.2201  0.5387  0.2827
  404TIP3    H122771   5.057   1.643   0.642  1.7842  0.8233 -3.0340
  404TIP3    H222772   5.030   1.766   0.727 -0.7079 -2.7661  1.8845
  405TIP3   OH222773   5.298   2.396   2.122 -0.1141  0.5051 -0.3684
  405TIP3    H122774   5.230   2.460   2.139  0.3838  1.0640 -0.4716
  405TIP3    H222775   5.261   2.339   2.055 -0.1614  1.3246 -1.0544
  406TIP3   OH222776   4.639   2.596   2.441  0.7027 -0.2615 -0.5341
  406TIP3    H122777   4.672   2.676   2.481  0.5473  0.1030 -1.1239
  406TIP3    H222778   4.618   2.539   2.515  0.7962  0.2467 -0.1103
  407TIP3   OH222779   0.755   4.632   7.723  0.6304  0.2204 -0.1726
  407TIP3    H122780   0.794   4.559   7.770 -0.1673 -0.1374 -0.0636
  407TIP3    H222781   0.829   4.674   7.679  0.9535 -1.2980 -1.1439
  408TIP3   OH222782   0.792   2.045   2.949  0.1903  0.4734 -0.0120
  408TIP3    H122783   0.872   2.024   2.998  1.1287  1.5802 -1.0080
  408TIP3    H222784   0.800   1.994   2.868 -1.0372 -0.8393  0.6377
  409TIP3   OH222785   4.685   1.640   1.111 -0.3141  0.2804 -0.1493
  409TIP3    H122786   4.614   1.653   1.048 -0.7959 -2.9034 -0.4346
  409TIP3    H222787   4.650   1.576   1.173  1.4104  0.6260  1.2405
  410TIP3   OH222788   6.832   4.155   2.041  0.3484 -0.2793  0.7063
  410TIP3    H122789   6.875   4.119   2.119  0.8411 -0.8395  0.1904
  410TIP3    H222790   6.772   4.086   2.013 -0.1440  0.0937  0.8331
  411TIP3   OH222791   5.249   4.378   7.781  0.0050  0.2087  0.3754
  411TIP3    H122792   5.307   4.401   7.709  0.9965 -1.9358  0.4127
  411TIP3    H222793   5.162   4.371   7.740  0.2469  0.6702 -0.2381
  412TIP3   OH222794   5.427   0.392   8.385  0.2636 -0.1194  0.1169
  412TIP3    H122795   5.409   0.466   8.327 -0.7223 -0.0934  0.4418
  412TIP3    H222796   5.430   0.316   8.327 -0.0300  0.0007 -0.0570
  413TIP3   OH222797   4.348   3.931   1.251  0.1581  0.0004 -0.2878
  413TIP3    H122798   4.315   3.841   1.249 -0.1402  0.1121 -1.7443
  413TIP3    H222799   4.276   3.983   1.217  0.3149  0.8089  0.5872
  414TIP3   OH222800   4.362   4.296   1.042  0.4601 -0.0134 -0.2065
  414TIP3    H122801   4.452   4.263   1.044 -0.4063 -2.8166 -2.1762
  414TIP3    H222802   4.320   4.255   1.118  0.3987 -0.2093 -0.3448
  415TIP3   OH222803   4.322   4.592   1.271 -0.5218  0.2188  0.0353
  415TIP3    H122804   4.296   4.682   1.248 -1.1654  0.0747  0.1797
  415TIP3    H222805   4.331   4.594   1.366  0.7438  0.4514 -0.0684
  416TIP3   OH222806   3.154   4.944   1.111 -0.4419 -0.0661 -0.3624
  416TIP3    H122807   3.111   4.871   1.065 -0.9832 -0.1553  0.2754
  416TIP3    H222808   3.084   5.009   1.123  0.4059  1.3796 -2.5270
  417TIP3   OH222809   1.528   4.031   2.923  0.1225 -0.0310 -0.1168
  417TIP3    H122810   1.564   4.010   3.010  0.5547  2.1151  0.2890
  417TIP3    H222811   1.531   4.127   2.919 -1.3864 -0.0166 -1.8951
  418TIP3   OH222812   3.885   5.955   1.652  0.0607 -0.3260  0.6388
  418TIP3    H122813   3.844   6.017   1.713  0.0524 -1.5193  1.8948
  418TIP3    H222814   3.978   5.955   1.677  0.7577  1.6815 -1.6006
  419TIP3   OH222815   5.870   4.125   2.462 -0.3450  0.0611  0.2278
  419TIP3    H122816   5.952   4.140   2.416 -0.0598 -1.0717  0.3323
  419TIP3    H222817   5.896   4.078   2.542 -1.1983 -1.5885 -0.4167
  420TIP3   OH222818   1.764   0.268   1.324 -0.1454  0.4796  0.2556
  420TIP3    H122819   1.697   0.204   1.302  1.4298 -1.9450  1.9741
  420TIP3    H222820   1.726   0.319   1.396 -0.7426  0.2528  0.1005
  421TIP3   OH222821   0.191   6.615   0.447  0.2981  0.1541 -0.6070
  421TIP3    H122822   0.218   6.706   0.454  1.1833 -0.1981  1.5379
  421TIP3    H222823   0.245   6.569   0.513 -0.8444 -1.7283 -0.9082
  422TIP3   OH222824   1.705   0.316   0.035 -0.2323 -0.5282  0.6766
  422TIP3    H122825   1.690   0.285   0.125 -0.4347 -0.6260  0.6098
  422TIP3    H222826   1.645   0.264  -0.018  1.9037 -2.6037  0.0871
  423TIP3   OH222827   0.045   3.596   2.568 -0.2186 -0.3379 -0.3859
  423TIP3    H122828   0.131   3.614   2.529 -0.2328  0.8485  0.0824
  423TIP3    H222829  -0.017   3.640   2.510 -0.2332  1.5332  0.9326
  424TIP3   OH222830   2.273   4.130   2.129 -0.4694  0.2580  0.2963
  424TIP3    H122831   2.263   4.137   2.224  1.3288 -0.8604  0.6162
  424TIP3    H222832   2.367   4.144   2.114 -0.0630 -2.9596 -0.9122
  425TIP3   OH222833   5.436   0.487   0.998 -0.0600  0.4222 -0.2669
  425TIP3    H122834   5.470   0.571   0.969 -0.1156  0.4259 -0.3218
  425TIP3    H222835   5.355   0.509   1.045  0.8792  0.5721  1.3411
  426TIP3   OH222836   4.092   6.149   0.750  0.4503 -0.0342  0.4679
  426TIP3    H122837   4.120   6.072   0.798  1.8666  1.7401  2.6914
  426TIP3    H222838   4.148   6.150   0.672  1.2728 -0.6083  1.0342
  427TIP3   OH222839   2.075   6.201   1.301  0.6517 -0.0740  0.1487
  427TIP3    H122840   2.092   6.269   1.367  0.7208 -0.1949  0.2549
  427TIP3    H222841   2.130   6.127   1.327  0.6187 -0.1513  0.0008
  428TIP3   OH222842   2.802   2.436   7.652 -0.1977  0.1716 -0.7311
  428TIP3    H122843   2.874   2.373   7.657 -0.4741 -0.0968 -0.0963
  428TIP3    H222844   2.751   2.408   7.576 -0.6552 -0.7331 -0.1028
  429TIP3   OH222845   3.306   3.724   0.283 -0.4821 -0.3320 -0.0518
  429TIP3    H122846   3.373   3.764   0.337 -1.5212 -0.7053  1.5790
  429TIP3    H222847   3.354   3.677   0.215  0.8788 -0.1772  0.7815
  430TIP3   OH222848   4.384   0.981   7.456 -0.1737 -0.6359  0.9877
  430TIP3    H122849   4.472   0.958   7.424 -0.3697 -0.6825  0.4801
  430TIP3    H222850   4.338   1.012   7.379 -0.5252 -0.3568  1.3060
  431TIP3   OH222851   5.108   1.993   8.311 -0.1280 -0.6327  0.0063
  431TIP3    H122852   5.063   2.012   8.393 -1.0455 -2.7549  0.0556
  431TIP3    H222853   5.201   1.991   8.335 -0.3179 -0.3985  0.7942
  432TIP3   OH222854   0.568   4.021   8.083  0.1051 -0.2063  0.1040
  432TIP3    H122855   0.515   4.050   8.157  0.5815  1.1618 -0.0743
  432TIP3    H222856   0.555   4.088   8.016  2.1947  0.2893  0.1297
  433TIP3   OH222857   1.909   5.612   0.087  0.0895  0.0724  0.5146
  433TIP3    H122858   1.884   5.523   0.110  1.9448 -0.7036 -0.2681
  433TIP3    H222859   1.888   5.620  -0.006 -2.1488  1.2785  1.0459
  434TIP3   OH222860   4.000   5.300   1.426 -0.0269  0.0035  0.4165
  434TIP3    H122861   3.909   5.275   1.436 -0.2115  0.0300 -0.9956
  434TIP3    H222862   4.050   5.229   1.467 -0.6669  0.4339  2.0304
  435TIP3   OH222863   4.651   0.731   8.245  0.3659 -0.7066  0.6204
  435TIP3    H122864   4.673   0.795   8.178 -2.3449 -0.4909 -0.1545
  435TIP3    H222865   4.676   0.647   8.207  0.8362 -0.4144  0.2727
  436TIP3   OH222866   6.177   4.478   0.549  0.5876 -0.1085  0.7293
  436TIP3    H122867   6.112   4.483   0.479 -0.9866 -0.8137  2.0720
  436TIP3    H222868   6.261   4.489   0.504 -0.2234 -2.0489 -1.5033
  437TIP3   OH222869   4.827   2.573   8.233 -0.2677 -0.6150 -0.1002
  437TIP3    H122870   4.911   2.615   8.215 -0.3182 -0.6121 -0.3271
  437TIP3    H222871   4.850   2.491   8.277 -0.0943 -1.1232 -1.1084
  438TIP3   OH222872   1.307   4.921   2.552  0.1258 -0.2073  0.2930
  438TIP3    H122873   1.237   4.978   2.582 -1.4484 -1.5573 -0.6805
  438TIP3    H222874   1.296   4.840   2.601  0.5284 -0.7125 -0.4226
  439TIP3   OH222875   0.112   5.009   1.007 -0.1904 -0.5324  0.2409
  439TIP3    H122876   0.140   4.917   1.015  0.5338 -0.3572 -0.2335
  439TIP3    H222877   0.098   5.037   1.098  1.5957 -0.5158  0.5559
  440TIP3   OH222878   4.981   0.867   2.249  0.1328  0.1407  0.0704
  440TIP3    H122879   5.034   0.927   2.302  1.3019 -0.2379 -0.6298
  440TIP3    H222880   4.909   0.841   2.306  1.0060  0.2415  1.2497
  441TIP3   OH222881   2.736   6.354   0.165 -0.3885 -0.2015 -0.2363
  441TIP3    H122882   2.725   6.260   0.177 -0.0098 -0.2152  0.0385
  441TIP3    H222883   2.682   6.394   0.233  0.5106 -0.2522  0.5360
  442TIP3   OH222884   0.652   5.210   7.478  0.7762 -0.2159  0.1167
  442TIP3    H122885   0.625   5.291   7.434  1.7554  0.2044  0.2610
  442TIP3    H222886   0.669   5.148   7.407 -0.5288 -0.4961  0.0211
  443TIP3   OH222887   4.512   6.854   8.051 -0.0135 -0.1506 -0.3041
  443TIP3    H122888   4.452   6.789   8.013 -2.3919  1.5372  0.3226
  443TIP3    H222889   4.579   6.867   7.984  2.1463 -5.0060  0.4951
  444TIP3   OH222890   1.154   5.189   7.479 -0.3861  0.1566  0.0097
  444TIP3    H122891   1.068   5.223   7.501  0.2909  1.4932  0.7081
  444TIP3    H222892   1.160   5.197   7.384 -0.0797  2.5803  0.1565
  445TIP3   OH222893   4.085   2.227   1.903 -0.0485  0.3005 -0.1079
  445TIP3    H122894   4.054   2.138   1.924  0.3292  0.4879  1.4070
  445TIP3    H222895   4.165   2.214   1.853 -0.4945 -0.1982 -0.7098
  446TIP3   OH222896   5.856   1.335   6.597  0.4330  0.0396 -0.1439
  446TIP3    H122897   5.836   1.427   6.609 -1.2096 -0.4506  1.2996
  446TIP3    H222898   5.771   1.293   6.582  1.1843 -1.1959 -1.2599
  447TIP3   OH222899   4.664   3.939   7.378 -0.9340 -0.2911  0.2893
  447TIP3    H122900   4.725   3.886   7.326 -1.3014  0.1363 -0.5935
  447TIP3    H222901   4.656   3.891   7.460  2.8936  1.1064  1.6855
  448TIP3   OH222902   2.249   5.043   1.456  0.0999  0.0961 -0.2504
  448TIP3    H122903   2.226   4.969   1.400  1.0026 -0.3480 -0.0652
  448TIP3    H222904   2.342   5.060   1.437  0.4578 -0.1181  1.1523
  449TIP3   OH222905   5.094   2.912   6.335  1.1070 -0.3964 -0.1365
  449TIP3    H122906   5.140   2.937   6.415  0.2944  1.5378 -0.2228
  449TIP3    H222907   5.033   2.843   6.362  0.5344  0.5365  1.0296
  450TIP3   OH222908   6.302   2.767   7.769 -0.1315 -0.1361  0.1890
  450TIP3    H122909   6.370   2.750   7.834  1.2567  1.3706 -0.7887
  450TIP3    H222910   6.222   2.734   7.809  0.9689 -0.9115  1.8735
  451TIP3   OH222911   4.141   3.672   0.250  0.2843  0.2528  0.2193
  451TIP3    H122912   4.146   3.704   0.340 -0.5214 -1.3475  0.8839
  451TIP3    H222913   4.052   3.639   0.241  1.2826 -2.7178 -0.0069
  452TIP3   OH222914   4.415   6.623   1.157  0.2730  0.3993  0.3059
  452TIP3    H122915   4.376   6.535   1.161  0.2319  0.2261 -2.0959
  452TIP3    H222916   4.467   6.630   1.237 -2.0858 -0.5927  2.0735
  453TIP3   OH222917   4.722   5.823   7.184  0.2270 -0.4944 -0.3422
  453TIP3    H122918   4.773   5.903   7.175  0.8639 -1.0414 -1.7832
  453TIP3    H222919   4.741   5.772   7.105 -0.2607 -2.0150  0.4706
  454TIP3   OH222920   0.684   2.247   7.469 -0.5082 -0.2395 -0.3505
  454TIP3    H122921   0.702   2.167   7.519 -0.8476 -0.7464 -1.0291
  454TIP3    H222922   0.765   2.297   7.475 -1.1375  0.6282  2.3492
  455TIP3   OH222923   6.664   5.636   2.198 -0.3556 -0.4344  0.1894
  455TIP3    H122924   6.682   5.718   2.151  1.7031  0.1883  1.8664
  455TIP3    H222925   6.735   5.630   2.263 -2.1258 -2.0302  2.1257
  456TIP3   OH222926   4.690   1.448   2.151  0.6797  0.2440  0.5329
  456TIP3    H122927   4.746   1.414   2.221 -0.4356 -3.2193 -0.0532
  456TIP3    H222928   4.615   1.486   2.197  0.5190 -0.9230  1.2676
  457TIP3   OH222929   6.523   1.766   0.862  0.1405 -0.5161 -0.1771
  457TIP3    H122930   6.515   1.860   0.875  0.9629 -0.3906 -0.5209
  457TIP3    H222931   6.493   1.728   0.945 -2.9977 -0.1108 -1.0198
  458TIP3   OH222932   4.058   4.005   1.173  0.0978 -0.2640  0.0731
  458TIP3    H122933   3.965   4.027   1.179  0.4026  1.0450  0.3281
  458TIP3    H222934   4.069   3.972   1.084 -0.7918 -1.4384  0.3678
  459TIP3   OH222935   2.662   0.971   1.955  0.4949  0.1747  0.2654
  459TIP3    H122936   2.582   0.931   1.990  0.7521 -0.9544 -0.4106
  459TIP3    H222937   2.730   0.948   2.019  0.5506 -0.0649  0.1202
  460TIP3   OH222938   6.580   0.724   8.347  0.0900 -0.7165  0.1742
  460TIP3    H122939   6.628   0.648   8.379  1.3866  0.2038  0.5307
  460TIP3    H222940   6.600   0.726   8.253  0.3032 -0.6594  0.2187
  461TIP3   OH222941   1.927   6.849   7.063 -0.4875  0.3692 -0.3831
  461TIP3    H122942   1.965   6.815   7.144 -1.6945  1.0895  0.5066
  461TIP3    H222943   1.881   6.928   7.089 -1.3505  0.3248 -1.6874
  462TIP3   OH222944   6.578   2.212   7.614 -0.1712 -0.1289 -0.4571
  462TIP3    H122945   6.565   2.302   7.584  1.3444 -0.1545 -1.3352
  462TIP3    H222946   6.570   2.159   7.535 -0.6991 -0.7339 -0.0068
  463TIP3   OH222947   1.863   2.511   0.435 -0.3296 -0.3547  0.1005
  463TIP3    H122948   1.827   2.570   0.368  1.0233  1.1763  0.6466
  463TIP3    H222949   1.797   2.442   0.445 -0.5978 -0.6451 -2.7880
  464TIP3   OH222950   4.262   5.812   1.243  0.3933  0.5795 -0.3598
  464TIP3    H122951   4.188   5.826   1.302 -1.6381 -0.2492 -2.5447
  464TIP3    H222952   4.288   5.721   1.258  0.3021  0.5633 -0.3001
  465TIP3   OH222953   6.149   3.536   2.061 -0.0432  0.2458 -0.1935
  465TIP3    H122954   6.080   3.488   2.105 -0.1539  0.1417 -0.4739
  465TIP3    H222955   6.105   3.609   2.018  0.2077  0.9678  0.7393
  466TIP3   OH222956   2.430   0.820   2.047 -0.4025  0.1124  0.5972
  466TIP3    H122957   2.438   0.743   1.991  2.5633  0.6687  0.1181
  466TIP3    H222958   2.444   0.787   2.135 -1.0880 -0.1488  0.6189
  467TIP3   OH222959   5.271   2.349   7.927 -0.5612 -0.5004 -0.1304
  467TIP3    H122960   5.347   2.296   7.949  0.4439 -0.0236 -2.2530
  467TIP3    H222961   5.235   2.310   7.847 -1.8305  0.0106  0.1542
  468TIP3   OH222962   3.182   1.793   8.152 -0.5283  0.3559  0.5412
  468TIP3    H122963   3.155   1.884   8.158 -0.3803  0.2861  3.1843
  468TIP3    H222964   3.114   1.744   8.199 -0.4913 -0.9076 -0.6317
  469TIP3   OH222965   1.045   0.800   0.471 -0.1450  0.2971  0.4502
  469TIP3    H122966   0.959   0.800   0.429  0.2622  0.0388 -0.3933
  469TIP3    H222967   1.105   0.832   0.404  0.2219  1.8939  1.4637
  470TIP3   OH222968   0.479   2.023   7.479  0.3681 -0.0118 -0.2509
  470TIP3    H122969   0.495   1.938   7.520 -1.8961 -1.5329 -2.2553
  470TIP3    H222970   0.418   2.068   7.538 -0.7602 -1.0521 -0.6004
  471TIP3   OH222971   5.291   5.090   1.518  0.1306  0.5306  0.9630
  471TIP3    H122972   5.373   5.063   1.477 -1.1155 -2.9179  0.3831
  471TIP3    H222973   5.227   5.090   1.447 -0.9195  0.3304  1.8776
  472TIP3   OH222974   6.886   2.338   6.892 -0.8844 -0.5044  0.0851
  472TIP3    H122975   6.816   2.368   6.950 -0.6397 -0.0723  0.1619
  472TIP3    H222976   6.944   2.287   6.949 -0.7280 -0.2147  0.1823
  473TIP3   OH222977   2.388   4.548   7.097 -0.3032  0.3430 -0.0550
  473TIP3    H122978   2.465   4.596   7.064  1.3139 -0.9628  1.5687
  473TIP3    H222979   2.356   4.499   7.021  1.8327 -0.7470 -0.3440
  474TIP3   OH222980   2.025   0.688   7.878 -0.6636  0.1168 -0.3666
  474TIP3    H122981   2.004   0.767   7.829  0.5567  0.1826 -0.7993
  474TIP3    H222982   1.974   0.619   7.834 -0.2506  0.3259 -1.1988
  475TIP3   OH222983   5.618   2.248   7.659  0.2422  0.1553 -0.0840
  475TIP3    H122984   5.695   2.193   7.668  1.1818  1.3087 -0.7390
  475TIP3    H222985   5.567   2.208   7.588  0.3138 -0.5198  0.2434
  476TIP3   OH222986   2.402   1.881   7.660  0.4472  0.4955  0.0023
  476TIP3    H122987   2.354   1.917   7.734  1.4964  0.4557  0.7261
  476TIP3    H222988   2.334   1.844   7.603 -0.3006 -1.2537  1.8876
  477TIP3   OH222989   3.177   1.198   2.943  0.6822  0.2614 -0.4902
  477TIP3    H122990   3.176   1.285   2.983  0.1424  0.4356 -0.8869
  477TIP3    H222991   3.254   1.155   2.981  1.0598  0.9801 -0.4432
  478TIP3   OH222992   2.822   4.403   7.698 -0.4122 -0.3325 -0.0437
  478TIP3    H122993   2.809   4.435   7.609 -0.8745 -0.0981  0.1039
  478TIP3    H222994   2.803   4.479   7.753  0.6644 -0.2469  0.2302
  479TIP3   OH222995   4.748   5.717   1.998 -0.2423  0.1282 -0.2365
  479TIP3    H122996   4.676   5.726   1.935  0.1018 -0.0187 -0.6552
  479TIP3    H222997   4.736   5.629   2.035 -1.2924  0.7502  0.9763
  480TIP3   OH222998   1.981   0.274   0.015 -0.1607 -0.4480 -0.2613
  480TIP3    H122999   2.004   0.345  -0.044 -0.8104 -0.7027 -0.8314
  480TIP3    H223000   1.885   0.275   0.019 -0.3417 -2.6226 -1.9936
  481TIP3   OH223001   1.841   4.857   8.367 -0.0482  0.1376  0.2563
  481TIP3    H123002   1.799   4.941   8.385 -0.0788  0.5370 -1.5199
  481TIP3    H223003   1.822   4.840   8.275 -0.0139 -1.8195  0.5736
  482TIP3   OH223004   2.633   1.711   1.839  0.2337 -0.3621 -0.3023
  482TIP3    H123005   2.576   1.668   1.776 -0.2894 -1.4057  0.8636
  482TIP3    H223006   2.706   1.651   1.851  0.2633 -0.2300  0.1955
  483TIP3   OH223007   1.220   3.947   1.154 -0.0863 -0.5618  0.2178
  483TIP3    H123008   1.166   3.942   1.233  0.7800  2.4529  1.1197
  483TIP3    H223009   1.303   3.983   1.184  1.0841 -1.4497 -1.7552
  484TIP3   OH223010   5.008   5.852   2.707 -0.4694  0.3849 -0.2147
  484TIP3    H123011   5.097   5.868   2.738 -0.5456 -0.0196  0.2375
  484TIP3    H223012   5.009   5.759   2.681 -0.5689  0.5666 -0.8821
  485TIP3   OH223013   0.873   0.842   0.670  0.2154  0.1675 -0.7098
  485TIP3    H123014   0.952   0.855   0.617 -0.3956  1.6537 -1.2902
  485TIP3    H223015   0.805   0.892   0.625 -0.8052 -0.1681  0.4044
  486TIP3   OH223016   5.926   4.202   7.626 -0.1486  0.1451  0.8231
  486TIP3    H123017   5.843   4.202   7.579  0.3447  0.9795 -0.0714
  486TIP3    H223018   5.993   4.199   7.558  0.5750  0.0887  1.5140
  487TIP3   OH223019   4.828   5.610   6.955  0.9709  0.1219  0.0289
  487TIP3    H123020   4.904   5.661   6.927  1.2654 -1.0137 -1.3313
  487TIP3    H223021   4.829   5.533   6.899 -2.2526  0.9210 -1.3546
  488TIP3   OH223022   5.334   2.655   0.850 -0.4486  0.3650 -0.0077
  488TIP3    H123023   5.326   2.622   0.761 -1.7007  1.1006 -0.1944
  488TIP3    H223024   5.368   2.581   0.900  1.1645  0.2090 -1.2308
  489TIP3   OH223025   4.916   4.164   2.046 -0.8180  0.4172 -0.0387
  489TIP3    H123026   4.973   4.236   2.017  0.0489 -0.4964 -0.6581
  489TIP3    H223027   4.945   4.145   2.135  0.2413 -0.3944 -0.5346
  490TIP3   OH223028   5.367   0.960   0.175  0.1035  0.3198  0.2693
  490TIP3    H123029   5.438   0.999   0.124 -1.4410  1.6652 -0.9330
  490TIP3    H223030   5.287   1.001   0.141 -1.1604 -0.1926  2.4606
  491TIP3   OH223031   5.739   0.565   7.463 -0.4451  0.1188  0.6085
  491TIP3    H123032   5.654   0.595   7.496 -0.5741  1.5145 -0.8557
  491TIP3    H223033   5.756   0.620   7.386  1.7470 -0.1893  0.7959
  492TIP3   OH223034   4.135   0.820   1.886  0.5057 -0.8386  0.0608
  492TIP3    H123035   4.141   0.851   1.795  0.6817 -1.8975 -0.3024
  492TIP3    H223036   4.073   0.881   1.928 -2.7689 -2.5932 -1.7961
  493TIP3   OH223037   0.253   6.207   8.126  0.1130 -0.6190 -0.8138
  493TIP3    H123038   0.270   6.222   8.219 -0.0171 -0.5489 -0.8009
  493TIP3    H223039   0.279   6.289   8.083  0.7895 -0.8836 -0.9168
  494TIP3   OH223040   4.422   3.432   7.740 -0.6220 -0.6568  0.3867
  494TIP3    H123041   4.470   3.513   7.759 -0.5391 -0.6702  0.2346
  494TIP3    H223042   4.489   3.372   7.706 -1.0940  0.0306 -1.9508
  495TIP3   OH223043   3.544   2.081   1.269 -0.4241  0.3359 -0.3548
  495TIP3    H123044   3.482   2.120   1.331 -1.9865  0.1085 -1.7233
  495TIP3    H223045   3.526   1.987   1.273 -1.5729  0.4392 -2.1798
  496TIP3   OH223046   4.387   4.480   7.142 -0.0745 -0.2897 -0.4422
  496TIP3    H123047   4.334   4.522   7.211  2.2966 -0.8064  1.8395
  496TIP3    H223048   4.392   4.546   7.073 -0.8039  1.1278  0.7768
  497TIP3   OH223049   3.988   2.726   7.156  0.0187 -0.6026 -0.3999
  497TIP3    H123050   4.042   2.647   7.149 -1.8603 -1.9935 -0.0777
  497TIP3    H223051   4.040   2.786   7.210  1.7088 -1.3997 -1.0750
  498TIP3   OH223052   4.171   0.023   8.580  0.0809  0.2723  0.8423
  498TIP3    H123053   4.216   0.100   8.547  1.0725 -0.3317  0.7620
  498TIP3    H223054   4.205   0.011   8.669 -1.8856  1.3503  1.8256
  499TIP3   OH223055   2.647   5.273   8.154 -0.5558  0.1410 -0.3982
  499TIP3    H123056   2.626   5.238   8.067  0.1073 -0.6200 -0.2637
  499TIP3    H223057   2.742   5.261   8.162 -0.7942 -1.0199  0.9616
  500TIP3   OH223058   5.203   6.053   3.061 -0.1304  0.2905 -0.6423
  500TIP3    H123059   5.280   6.046   3.005 -0.8529  1.4138 -1.8388
  500TIP3    H223060   5.238   6.082   3.146  0.9426 -1.1275 -0.5651
  501TIP3   OH223061   1.312   5.879   7.610  0.1034  0.2759 -0.7233
  501TIP3    H123062   1.371   5.804   7.613 -0.6634 -0.3035  1.0964
  501TIP3    H223063   1.305   5.900   7.517  2.3310 -0.2766 -1.0803
  502TIP3   OH223064   2.734   5.184   1.317  0.0525  0.5558 -0.1619
  502TIP3    H123065   2.666   5.162   1.380 -0.1600 -0.7057 -0.7908
  502TIP3    H223066   2.708   5.268   1.280 -0.6103  0.5809  0.3556
  503TIP3   OH223067   6.086   1.228   7.156 -0.1455  0.8839 -0.3941
  503TIP3    H123068   6.157   1.199   7.100 -2.1890  1.7709 -3.7330
  503TIP3    H223069   6.039   1.147   7.178  0.6356  0.5359  0.0573
  504TIP3   OH223070   6.304   2.820   1.764 -0.0542 -0.4771 -0.0826
  504TIP3    H123071   6.313   2.782   1.851 -1.0204 -0.6096 -0.0332
  504TIP3    H223072   6.242   2.763   1.719 -1.1028  0.7183 -0.1917
  505TIP3   OH223073   1.233   6.384   6.958  0.1506  0.3841 -0.1104
  505TIP3    H123074   1.248   6.421   6.871  1.1247 -0.3629 -0.2808
  505TIP3    H223075   1.142   6.406   6.978  1.1106  4.6957  0.6995
  506TIP3   OH223076   5.353   4.948   0.952  0.5657 -0.0375  0.4452
  506TIP3    H123077   5.263   4.938   0.920  0.8578 -3.3046  0.3014
  506TIP3    H223078   5.408   4.929   0.876  1.3394 -0.4573  1.0945
  507TIP3   OH223079   2.518   1.622   2.198  0.0085  0.2453  0.1755
  507TIP3    H123080   2.464   1.611   2.120  2.7414 -0.9728 -1.7052
  507TIP3    H223081   2.536   1.532   2.228  1.8987  0.5318  0.0073
  508TIP3   OH223082   2.196   2.755   7.935  0.0901  0.1242  0.3949
  508TIP3    H123083   2.285   2.720   7.925  0.1764  0.8466 -1.9553
  508TIP3    H223084   2.183   2.759   8.029  2.2440 -0.7801  0.7990
  509TIP3   OH223085   1.823   1.847   0.369  0.0524 -0.4692 -0.3940
  509TIP3    H123086   1.810   1.916   0.304  1.3126 -0.1844 -0.3629
  509TIP3    H223087   1.905   1.870   0.413  1.0378 -2.5278 -1.0571
  510TIP3   OH223088   0.075   0.279   0.704 -0.8311  0.1945 -0.6356
  510TIP3    H123089   0.129   0.249   0.777 -3.1079 -1.4811  0.5054
  510TIP3    H223090   0.124   0.253   0.626  0.5632 -0.1511  0.3154
  511TIP3   OH223091   0.407   2.611   6.544  0.1495  0.0880 -0.1463
  511TIP3    H123092   0.352   2.668   6.491 -0.4126 -2.2691 -2.2958
  511TIP3    H223093   0.372   2.618   6.632 -1.7389  0.8479 -0.9194
  512TIP3   OH223094   1.318   3.710   7.962  0.2296 -0.2977 -0.1790
  512TIP3    H123095   1.296   3.803   7.958 -1.6826 -0.7442 -2.2545
  512TIP3    H223096   1.271   3.677   8.039  0.5823  0.3492  0.3251
  513TIP3   OH223097   2.150   3.468   2.209  0.0027  0.0011 -0.6466
  513TIP3    H123098   2.065   3.425   2.199  0.5926 -1.6240  0.7008
  513TIP3    H223099   2.180   3.483   2.119 -1.8536  1.0037 -1.1525
  514TIP3   OH223100   2.385   0.588   8.404 -0.3162  0.4903  0.2268
  514TIP3    H123101   2.389   0.497   8.436 -0.5418 -0.1857 -1.5814
  514TIP3    H223102   2.359   0.638   8.481 -1.8867 -1.2121  0.8851
  515TIP3   OH223103   5.332   2.551   0.586  0.1483 -0.0596  0.3604
  515TIP3    H123104   5.409   2.496   0.601  1.1054  1.0756 -0.1613
  515TIP3    H223105   5.367   2.627   0.540 -0.8387  1.7473  2.4123
  516TIP3   OH223106   4.666   3.035   1.918  0.2722  0.3133  0.3227
  516TIP3    H123107   4.652   2.972   1.847  0.4687  1.4592 -0.7742
  516TIP3    H223108   4.758   3.024   1.942  0.3309  0.2369  0.0683
  517TIP3   OH223109   6.833   6.357   7.758 -0.2987 -0.1848 -0.2174
  517TIP3    H123110   6.902   6.389   7.699 -0.5841  0.7295 -0.0629
  517TIP3    H223111   6.827   6.424   7.826 -0.8245 -0.6343  0.1793
  518TIP3   OH223112   2.678   0.230   1.299 -0.7108 -0.1730 -0.2730
  518TIP3    H123113   2.694   0.159   1.237 -1.7884  0.1493 -0.9507
  518TIP3    H223114   2.613   0.285   1.256  0.3704  1.4531  0.0655
  519TIP3   OH223115   2.427   2.199   1.342 -0.3840  0.3629 -0.2422
  519TIP3    H123116   2.383   2.201   1.257  0.0837 -2.0576 -0.6234
  519TIP3    H223117   2.359   2.220   1.405 -1.0389  0.9325 -1.1148
  520TIP3   OH223118   3.675   4.628   7.900 -0.0950  0.1839  0.1596
  520TIP3    H123119   3.709   4.578   7.826 -0.7195 -0.0274  0.0113
  520TIP3    H223120   3.657   4.562   7.967  0.1117  0.3317  0.3599
  521TIP3   OH223121   4.481   4.800   0.256  0.1837 -0.6687  0.2191
  521TIP3    H123122   4.396   4.761   0.278 -0.5867 -0.1919 -1.6748
  521TIP3    H223123   4.497   4.864   0.325 -0.1901 -1.9041  1.4883
  522TIP3   OH223124   5.385   4.741   7.934  0.4014 -0.0267  0.2025
  522TIP3    H123125   5.461   4.689   7.961  0.9473  0.4722 -0.3544
  522TIP3    H223126   5.366   4.711   7.846 -1.1370 -1.3735  0.9437
  523TIP3   OH223127   4.262   6.237   0.574 -0.0878  0.3834  0.3758
  523TIP3    H123128   4.322   6.298   0.617  0.8355  1.9760 -2.8565
  523TIP3    H223129   4.318   6.172   0.533 -0.9126 -0.9093  1.2280
  524TIP3   OH223130   4.240   1.609   7.648  0.5688  0.3648 -0.2054
  524TIP3    H123131   4.145   1.624   7.656  0.2642  0.2091 -2.6827
  524TIP3    H223132   4.276   1.645   7.729 -1.5156  1.3644  0.3748
  525TIP3   OH223133   1.664   5.309   2.365  0.2476 -0.5529  0.0407
  525TIP3    H123134   1.744   5.282   2.409 -0.9601 -0.8888  2.1797
  525TIP3    H223135   1.596   5.253   2.402 -1.2776  0.9501 -0.3288
  526TIP3   OH223136   3.768   5.118   0.149  0.2094 -0.0795  0.3698
  526TIP3    H123137   3.776   5.213   0.161  0.5873 -0.1934  1.0612
  526TIP3    H223138   3.821   5.081   0.219 -0.1534 -0.8094  0.2616
  527TIP3   OH223139   2.366   4.754   0.211  0.1404 -0.2930 -0.0962
  527TIP3    H123140   2.337   4.843   0.232  2.2287  0.5272 -0.4559
  527TIP3    H223141   2.457   4.765   0.183  0.7804 -2.6614  0.8290
  528TIP3   OH223142   3.191   6.080   1.999  0.2272  0.3729  0.4269
  528TIP3    H123143   3.119   6.061   2.059  0.5330  1.1880  1.0601
  528TIP3    H223144   3.162   6.044   1.915  0.7952 -3.0126  1.5337
  529TIP3   OH223145   1.539   0.898   8.056 -0.0923 -0.1549  0.3825
  529TIP3    H123146   1.546   0.990   8.080 -1.7791  0.7331 -2.0759
  529TIP3    H223147   1.606   0.885   7.988 -0.9155 -0.2490 -0.4414
  530TIP3   OH223148   2.793   5.781   1.557  0.0719 -0.9882  0.2709
  530TIP3    H123149   2.706   5.754   1.588  0.0911 -0.6400  0.6482
  530TIP3    H223150   2.795   5.755   1.465 -1.4963  1.3773 -0.5525
  531TIP3   OH223151   3.169   4.390   7.171 -0.4688 -0.1506  0.1908
  531TIP3    H123152   3.221   4.465   7.140  2.6155 -2.5788 -0.9764
  531TIP3    H223153   3.144   4.414   7.261  2.9257  1.1627  0.9222
  532TIP3   OH223154   6.559   4.451   7.519 -0.7382 -0.6293  0.4010
  532TIP3    H123155   6.465   4.455   7.499 -0.2132  1.0482 -2.2228
  532TIP3    H223156   6.562   4.447   7.614 -3.4743  0.6588  0.6584
  533TIP3   OH223157   0.595   4.559   0.412  0.1300  0.2274 -0.0802
  533TIP3    H123158   0.637   4.494   0.468 -2.7441  0.2418  2.3157
  533TIP3    H223159   0.633   4.642   0.439  1.6260 -0.1228 -1.0204
  534TIP3   OH223160   4.658   6.589   0.409 -0.0613  0.3091  0.0825
  534TIP3    H123161   4.688   6.547   0.328 -2.0845 -1.4280  0.1418
  534TIP3    H223162   4.705   6.542   0.478 -0.3114 -0.0168  0.0315
  535TIP3   OH223163   3.822   6.136   1.884 -0.2688  0.5718  0.1219
  535TIP3    H123164   3.847   6.225   1.910 -0.0416  0.7579 -0.6992
  535TIP3    H223165   3.773   6.102   1.958 -0.6118  1.4966  0.3283
  536TIP3   OH223166   5.260   6.755   0.485 -0.3181  0.3833 -0.1396
  536TIP3    H123167   5.327   6.811   0.447 -0.3982  0.5992  0.0347
  536TIP3    H223168   5.196   6.816   0.522  0.1205  0.1811  0.9928
  537TIP3   OH223169   6.759   5.751   3.000  0.3514  0.0116  0.2499
  537TIP3    H123170   6.725   5.841   2.999 -0.3806 -0.2581 -0.3163
  537TIP3    H223171   6.838   5.755   2.946  1.2094  0.6269  1.4926
  538TIP3   OH223172   4.521   4.953   7.546  0.1306 -0.0838  0.4187
  538TIP3    H123173   4.466   4.977   7.471 -0.6871 -2.4507  0.1814
  538TIP3    H223174   4.468   4.890   7.595  2.7815 -2.8931 -0.0920
  539TIP3   OH223175   1.981   0.276   3.157 -0.2085  0.0481 -0.4398
  539TIP3    H123176   1.962   0.253   3.066 -0.5119  1.3127 -0.7237
  539TIP3    H223177   1.976   0.194   3.204 -0.7292 -0.5316 -1.4642
  540TIP3   OH223178   0.255   4.579   8.550 -0.3285 -0.3506  0.0173
  540TIP3    H123179   0.343   4.564   8.517  0.8130  1.2183  2.0836
  540TIP3    H223180   0.248   4.675   8.555 -1.7357 -0.4740  0.8883
  541TIP3   OH223181   3.363   2.321   8.223  0.2951 -0.5860 -0.1740
  541TIP3    H123182   3.278   2.364   8.224 -0.5229 -2.1038 -1.0078
  541TIP3    H223183   3.403   2.349   8.140  1.4095  1.4787  0.9592
  542TIP3   OH223184   6.338   6.240   2.437 -0.6936  0.2977  0.6293
  542TIP3    H123185   6.261   6.206   2.482 -0.7809 -0.6207 -0.1760
  542TIP3    H223186   6.394   6.272   2.507 -1.2225 -0.2572  1.3259
  543TIP3   OH223187   1.204   2.050   7.636  0.1399  0.2428 -0.2161
  543TIP3    H123188   1.285   2.098   7.616  0.0684 -0.1927 -1.6710
  543TIP3    H223189   1.134   2.111   7.617  0.0840 -0.0224 -0.8963
  544TIP3   OH223190   3.670   6.556   0.357  0.5172  0.0680  0.2444
  544TIP3    H123191   3.628   6.480   0.397  1.1179 -0.2833  0.2175
  544TIP3    H223192   3.623   6.569   0.275  1.8895 -1.7427 -0.9118
  545TIP3   OH223193   3.436   0.272   1.886  0.0611  0.1378 -0.2107
  545TIP3    H123194   3.512   0.327   1.901  1.2788 -1.4246 -0.4540
  545TIP3    H223195   3.461   0.215   1.814 -1.8113  0.4150 -1.1632
  546TIP3   OH223196   5.078   1.055   0.600  0.6613 -0.1270 -0.2188
  546TIP3    H123197   5.061   1.023   0.689  0.4225  1.4610  0.3285
  546TIP3    H223198   5.020   1.002   0.545 -0.1641 -0.2356  0.7189
  547TIP3   OH223199   4.337   6.612   0.712  0.1593  0.5856 -0.1555
  547TIP3    H123200   4.331   6.557   0.791 -1.0652 -0.5154 -0.9670
  547TIP3    H223201   4.262   6.671   0.718 -0.3005  0.0822 -0.7693
  548TIP3   OH223202   6.606   6.767   7.636 -0.0609 -0.1448 -0.2525
  548TIP3    H123203   6.614   6.673   7.653 -2.8375 -1.1040 -3.2539
  548TIP3    H223204   6.521   6.791   7.672  0.0704  0.9091 -0.6164
  549TIP3   OH223205   5.967   5.711   2.497 -0.1573 -0.2062 -0.0932
  549TIP3    H123206   6.053   5.729   2.534 -0.6983 -0.1488  1.2065
  549TIP3    H223207   5.984   5.657   2.421  0.9733 -1.0294  0.7108
  550TIP3   OH223208   2.336   3.633   1.068  0.1247  0.4511  0.4912
  550TIP3    H123209   2.356   3.724   1.092  1.3999  0.4943 -0.6255
  550TIP3    H223210   2.384   3.619   0.987 -2.2407 -0.3763 -0.8422
  551TIP3   OH223211   6.085   0.592   7.525  0.4740 -0.3091 -0.2487
  551TIP3    H123212   6.069   0.557   7.437  0.6956  0.6968 -0.7030
  551TIP3    H223213   6.077   0.686   7.515 -1.9709 -0.2645  1.3206
  552TIP3   OH223214   5.894   5.192   7.242  0.0848  0.2721 -0.0614
  552TIP3    H123215   5.839   5.255   7.196  0.3855 -1.1616 -2.5595
  552TIP3    H223216   5.874   5.108   7.200 -0.0984 -1.3069  2.9354
  553TIP3   OH223217   1.229   3.760   2.115 -0.2569  0.5404 -0.1064
  553TIP3    H123218   1.169   3.743   2.042  0.2163  1.2679 -0.6746
  553TIP3    H223219   1.176   3.808   2.179 -0.9674 -0.9928  0.5141
  554TIP3   OH223220   6.796   2.841   8.543 -0.0591  0.1571  0.1398
  554TIP3    H123221   6.821   2.891   8.465 -2.0454 -0.3335 -0.8731
  554TIP3    H223222   6.702   2.855   8.551 -0.3385 -1.8845  0.9343
  555TIP3   OH223223   5.773   6.117   2.414 -0.0139  0.6624  0.3630
  555TIP3    H123224   5.720   6.039   2.432  0.8642 -0.1687 -0.4923
  555TIP3    H223225   5.713   6.178   2.371 -0.1263 -0.5619 -1.2976
  556TIP3   OH223226   0.340   6.000   0.694  0.3155  0.4425  0.1177
  556TIP3    H123227   0.420   6.026   0.740 -0.0959  1.2522  0.3858
  556TIP3    H223228   0.269   6.032   0.749 -0.1886  0.3767 -0.4891
  557TIP3   OH223229   2.226   0.930   0.864 -1.2362  0.3580  0.1353
  557TIP3    H123230   2.280   1.001   0.830 -2.2000  2.6779  2.9564
  557TIP3    H223231   2.287   0.860   0.884  0.1783  1.4263 -0.2862
  558TIP3   OH223232   3.733   6.838   7.780 -0.2565 -0.2733  0.2638
  558TIP3    H123233   3.766   6.765   7.728 -0.8962  1.0787 -2.2340
  558TIP3    H223234   3.667   6.800   7.838  0.2829 -1.8310 -0.1089
  559TIP3   OH223235   4.133   2.042   7.378  0.1358  0.1959 -0.0122
  559TIP3    H123236   4.167   1.989   7.306  0.8788 -2.0048  1.8362
  559TIP3    H223237   4.206   2.099   7.401  0.5009 -0.2976  0.0798
  560TIP3   OH223238   0.303   4.420   2.016 -0.3573 -0.2346  0.0874
  560TIP3    H123239   0.396   4.398   2.021 -0.5616 -1.8317 -1.8395
  560TIP3    H223240   0.269   4.398   2.103  0.4454 -3.0629 -0.2061
  561TIP3   OH223241   1.432   2.602   7.289  0.1497  0.1616  0.6838
  561TIP3    H123242   1.431   2.646   7.204  1.4926 -0.0351  0.5414
  561TIP3    H223243   1.457   2.512   7.269 -1.7235 -0.4948  1.0657
  562TIP3   OH223244   1.275   3.545   6.603  0.1749  0.4473  0.8316
  562TIP3    H123245   1.280   3.480   6.674  1.3258 -0.7457 -0.3041
  562TIP3    H223246   1.272   3.494   6.523 -1.3323  1.7764 -0.0343
  563TIP3   OH223247   0.658   5.874   7.880  0.4962 -0.3687  0.1400
  563TIP3    H123248   0.696   5.852   7.965 -0.0448  0.3634  0.5858
  563TIP3    H223249   0.723   5.931   7.839 -0.1351  1.0086  0.9667
  564TIP3   OH223250   5.199   4.995   0.292  0.8597  0.0150  0.3066
  564TIP3    H123251   5.107   4.970   0.290  0.4993  1.3029 -0.2101
  564TIP3    H223252   5.206   5.057   0.364  0.9302  1.2871 -0.7600
  565TIP3   OH223253   3.068   5.998   1.097 -0.2605 -0.4119  0.0415
  565TIP3    H123254   3.144   6.008   1.040 -0.0586  0.9105  0.4994
  565TIP3    H223255   3.089   5.923   1.152  0.1674 -0.8139 -0.6552
  566TIP3   OH223256   0.727   2.820   1.236 -0.0158 -0.1851 -0.0343
  566TIP3    H123257   0.707   2.906   1.274 -2.3596 -0.6704 -0.0367
  566TIP3    H223258   0.713   2.758   1.308  0.7751 -0.6650 -0.2762
  567TIP3   OH223259   2.177   1.165   1.258 -0.2063  0.1727 -0.4512
  567TIP3    H123260   2.173   1.246   1.207  0.1113 -0.2873 -1.2342
  567TIP3    H223261   2.270   1.146   1.266 -0.2881 -0.3265 -0.6287
  568TIP3   OH223262   2.731   6.397   2.769  0.1177  0.5046 -0.3138
  568TIP3    H123263   2.667   6.327   2.780  1.9458 -0.9133  2.9103
  568TIP3    H223264   2.799   6.359   2.713  1.5351 -0.8347  2.1245
  569TIP3   OH223265   6.544   0.466   8.001  0.0067  0.4445 -0.0084
  569TIP3    H123266   6.482   0.408   7.957 -0.6391 -0.2625  1.7407
  569TIP3    H223267   6.630   0.431   7.977 -0.3170 -2.8182  2.7388
  570TIP3   OH223268   2.812   5.579   1.936 -0.3203  0.5622 -0.0479
  570TIP3    H123269   2.783   5.664   1.905 -0.9847  0.2280 -0.3580
  570TIP3    H223270   2.731   5.532   1.957 -0.0379 -0.5313 -1.3229
  571TIP3   OH223271   6.672   0.984   0.506  0.1230  0.0989  0.6833
  571TIP3    H123272   6.719   1.019   0.582 -0.0427 -1.0839  1.3569
  571TIP3    H223273   6.596   1.041   0.496 -1.2589 -1.1739  3.0202
  572TIP3   OH223274   5.712   0.063   0.881 -0.4077 -0.0431  0.6089
  572TIP3    H123275   5.639   0.119   0.908  0.8205  0.9066  2.1279
  572TIP3    H223276   5.783   0.124   0.862  0.8056 -1.0338  1.8040
  573TIP3   OH223277   5.383   2.630   2.335  0.3417  0.1083 -0.5685
  573TIP3    H123278   5.323   2.666   2.401  0.8996  1.4064 -0.7381
  573TIP3    H223279   5.342   2.548   2.308  0.3827 -0.7643  1.8133
  574TIP3   OH223280   1.222   2.509   1.016  0.4190  0.0544  0.0459
  574TIP3    H123281   1.145   2.548   1.056 -0.5114 -2.0743  0.4882
  574TIP3    H223282   1.291   2.517   1.082  0.6739  2.0508 -0.3892
  575TIP3   OH223283   0.809   2.249   2.562 -0.5520  0.3953 -0.5351
  575TIP3    H123284   0.766   2.295   2.635  0.9929  2.1779 -0.6713
  575TIP3    H223285   0.880   2.199   2.604  1.9153  3.3061 -0.8590
  576TIP3   OH223286   3.859   5.711   2.618  0.1923 -0.7582  0.6531
  576TIP3    H123287   3.799   5.691   2.546  0.9183  0.6025 -0.4009
  576TIP3    H223288   3.803   5.744   2.688 -0.4140 -0.8191  0.2008
  577TIP3   OH223289   2.808   4.479   7.426 -0.4337  0.5752  0.4544
  577TIP3    H123290   2.775   4.568   7.421  0.0801  0.7411 -0.1322
  577TIP3    H223291   2.831   4.457   7.336 -0.1837 -0.0051  0.6559
  578TIP3   OH223292   0.139   2.208   7.917 -0.2511  0.2771 -0.0355
  578TIP3    H123293   0.223   2.249   7.938  0.6093 -2.0086  1.3064
  578TIP3    H223294   0.149   2.117   7.943 -2.7264 -0.3851 -1.0906
  579TIP3   OH223295   3.279   0.344   1.122 -0.1849  0.1484 -0.2484
  579TIP3    H123296   3.365   0.382   1.103 -1.1435  2.1371 -0.8799
  579TIP3    H223297   3.274   0.267   1.065  1.2649 -0.1501 -0.0028
  580TIP3   OH223298   2.409   0.580   1.264 -0.4221 -0.4423 -0.1277
  580TIP3    H123299   2.461   0.641   1.211 -1.3638  0.9205  0.4578
  580TIP3    H223300   2.375   0.516   1.201 -0.2904  0.2714 -0.9382
  581TIP3   OH223301   6.851   3.944   1.261 -0.3816  0.0833  0.0743
  581TIP3    H123302   6.769   3.942   1.310  0.1167  0.1616  0.9405
  581TIP3    H223303   6.825   3.959   1.170 -1.5196 -2.7209 -0.1509
  582TIP3   OH223304   0.051   5.999   0.353  0.2478 -0.4503  0.0151
  582TIP3    H123305   0.100   5.963   0.427  0.4114 -0.7999 -0.2603
  582TIP3    H223306   0.012   5.923   0.310 -1.1233 -0.1269  0.6273
  583TIP3   OH223307   2.977   6.779   0.455 -0.4997 -0.0347 -0.0790
  583TIP3    H123308   2.893   6.825   0.451 -1.3771 -1.6096 -1.1798
  583TIP3    H223309   2.984   6.734   0.370  0.5226 -1.4736  0.7129
  584TIP3   OH223310   3.309   5.290   1.503  0.2315 -0.3572 -0.3356
  584TIP3    H123311   3.373   5.308   1.572 -0.1224  0.7933 -0.2813
  584TIP3    H223312   3.230   5.336   1.531 -0.6915 -1.8735 -0.3335
  585TIP3   OH223313   1.992   5.100   1.297 -0.1093  0.6708  0.1800
  585TIP3    H123314   1.970   5.029   1.238  0.0894  0.4900  0.3235
  585TIP3    H223315   2.059   5.151   1.250  0.9848 -0.1884  0.7534
  586TIP3   OH223316   1.270   6.870   2.981 -0.0534  0.0161 -0.4246
  586TIP3    H123317   1.190   6.877   3.033  1.1347 -2.0304  1.9251
  586TIP3    H223318   1.240   6.861   2.891 -2.7045 -3.3007  0.5991
  587TIP3   OH223319   2.912   5.618   0.090 -0.4230  0.0578  0.2077
  587TIP3    H123320   2.836   5.671   0.068 -0.5073  0.0182  0.4040
  587TIP3    H223321   2.983   5.681   0.104 -0.5709  0.1313  0.6350
  588TIP3   OH223322   6.019   0.172   1.568  0.7552  0.2566  0.5275
  588TIP3    H123323   5.974   0.185   1.484  2.2690 -0.6882 -0.4904
  588TIP3    H223324   5.966   0.105   1.613  1.5016 -1.4418 -0.9945
  589TIP3   OH223325   0.847   1.593   1.768  0.0223 -0.5441 -0.3993
  589TIP3    H123326   0.807   1.643   1.839 -0.0370  1.4622 -1.7597
  589TIP3    H223327   0.812   1.633   1.688  2.3306 -0.7555 -1.6032
  590TIP3   OH223328   1.812   3.115   7.679 -0.2085  0.0741 -0.8016
  590TIP3    H123329   1.813   3.134   7.773 -0.2651 -0.3641 -0.7058
  590TIP3    H223330   1.885   3.165   7.643  1.0450 -1.2463 -0.2101
  591TIP3   OH223331   6.217   6.030   2.092 -0.1131 -0.3222  0.4804
  591TIP3    H123332   6.280   5.980   2.144 -0.8991  0.7399  2.5767
  591TIP3    H223333   6.137   6.031   2.145 -1.1426  0.3612 -1.0230
  592TIP3   OH223334   5.356   6.381   3.053 -0.0227 -0.3885  0.1551
  592TIP3    H123335   5.402   6.305   3.016  1.2427  0.8512 -0.9257
  592TIP3    H223336   5.273   6.385   3.005  0.6606 -0.0809 -1.0228
  593TIP3   OH223337   0.316   6.552   0.210 -0.3073 -0.3138  0.4651
  593TIP3    H123338   0.252   6.554   0.282 -0.3716 -1.0779  0.4317
  593TIP3    H223339   0.272   6.598   0.139 -0.1000  0.7863  1.0180
  594TIP3   OH223340   2.043   5.551   1.873  0.1553 -0.0777 -0.2470
  594TIP3    H123341   2.002   5.531   1.789 -0.6213  2.0853 -0.4603
  594TIP3    H223342   2.013   5.482   1.932 -0.6665 -0.6869 -1.3423
  595TIP3   OH223343   5.191   0.606   2.699 -0.2858  1.0187  0.0122
  595TIP3    H123344   5.113   0.576   2.652  0.1239  2.2460 -1.5520
  595TIP3    H223345   5.259   0.542   2.676 -0.4440  0.8012  0.1401
  596TIP3   OH223346   2.876   6.747   7.355 -1.5674  0.0406  0.1948
  596TIP3    H123347   2.851   6.675   7.297 -0.2285 -0.8267  0.6557
  596TIP3    H223348   2.849   6.826   7.307  1.4225 -0.4698 -2.7536
  597TIP3   OH223349   2.843   5.979   7.680  0.0870 -0.2480  0.1409
  597TIP3    H123350   2.903   5.918   7.723 -0.5772 -0.1573  1.2298
  597TIP3    H223351   2.759   5.933   7.676 -0.9529  1.2083  2.7306
  598TIP3   OH223352   0.278   6.508   2.906  0.6838 -0.0378  0.0682
  598TIP3    H123353   0.274   6.604   2.898 -0.8383 -0.0104  0.7493
  598TIP3    H223354   0.359   6.492   2.954  1.0065  0.9017 -0.1315
  599TIP3   OH223355   0.744   6.724   0.982 -0.6431  0.2105  0.3814
  599TIP3    H123356   0.816   6.744   0.922  0.0012 -0.1231  1.0265
  599TIP3    H223357   0.731   6.804   1.032 -0.5489  0.1970  0.4292
  600TIP3   OH223358   2.824   1.234   8.444 -0.8375 -0.4028  0.2431
  600TIP3    H123359   2.853   1.265   8.358 -0.6329 -1.4405 -0.0772
  600TIP3    H223360   2.736   1.271   8.454 -0.5266  0.4218 -0.0356
  601TIP3   OH223361   5.827   1.226   7.802  0.5802  0.5981 -0.8152
  601TIP3    H123362   5.759   1.177   7.848 -1.1652  2.6301 -1.0393
  601TIP3    H223363   5.908   1.179   7.820 -0.5056 -0.4677  1.6567
  602TIP3   OH223364   4.242   4.584   8.046  0.3157 -0.2999 -0.3596
  602TIP3    H123365   4.217   4.551   7.959  1.6360 -0.7032 -0.5971
  602TIP3    H223366   4.165   4.633   8.075 -0.3911 -0.7068 -1.4771
  603TIP3   OH223367   5.326   6.574   0.019  0.2079  0.1182  0.3029
  603TIP3    H123368   5.411   6.539   0.045  0.0309 -0.3363  0.2751
  603TIP3    H223369   5.347   6.648  -0.039  0.5883  0.5133  0.9407
  604TIP3   OH223370   5.807   5.134   0.638 -0.1412  0.3109 -0.3287
  604TIP3    H123371   5.848   5.213   0.603 -0.1674  0.9957  1.1429
  604TIP3    H223372   5.880   5.083   0.673 -0.2883  0.4814  0.2433
  605TIP3   OH223373   0.488   6.281   8.492  0.0411 -0.2384 -0.6153
  605TIP3    H123374   0.424   6.216   8.461 -1.2322  0.4069  0.5351
  605TIP3    H223375   0.469   6.360   8.440  0.0706 -0.1129 -0.4351
  606TIP3   OH223376   6.887   0.909   0.986  0.5045 -0.7619 -0.0878
  606TIP3    H123377   6.865   0.932   0.896 -2.4488 -1.5175  0.3364
  606TIP3    H223378   6.877   0.990   1.035  2.3811 -0.2861 -0.4136
  607TIP3   OH223379   3.290   3.315   0.826  0.1194 -0.3284 -0.1374
  607TIP3    H123380   3.375   3.353   0.845 -0.7470  1.1915  1.0087
  607TIP3    H223381   3.271   3.340   0.736 -0.7738  2.8464  0.8222
  608TIP3   OH223382   0.325   6.553   1.345  0.0806  0.1709  0.6849
  608TIP3    H123383   0.281   6.495   1.283 -1.7768 -0.6715  2.6763
  608TIP3    H223384   0.276   6.544   1.426  1.5336  2.3320  1.9190
  609TIP3   OH223385   1.934   5.823   2.315 -0.4068  0.1284 -0.4862
  609TIP3    H123386   2.011   5.798   2.264 -0.0583  0.0633  0.0740
  609TIP3    H223387   1.961   5.898   2.367 -0.8320  0.3430 -0.5661
  610TIP3   OH223388   5.598   3.893   8.183 -0.2282  0.2228 -0.4057
  610TIP3    H123389   5.669   3.956   8.192  1.2245 -1.4977  0.6855
  610TIP3    H223390   5.628   3.833   8.114 -1.0914  0.0595 -0.6508
  611TIP3   OH223391   4.548   3.167   6.816 -0.0075 -0.4446 -0.2613
  611TIP3    H123392   4.589   3.241   6.770  0.6948  0.0680  1.1164
  611TIP3    H223393   4.472   3.205   6.859 -0.6839 -0.9282 -1.0058
  612TIP3   OH223394   5.425   3.936   0.325 -0.2881 -0.0044  0.2345
  612TIP3    H123395   5.401   4.028   0.338  1.1278  0.4868 -0.4482
  612TIP3    H223396   5.480   3.914   0.399  0.6298  0.1721 -0.3825
  613TIP3   OH223397   4.248   5.126   0.364 -0.1639  0.4611  0.0448
  613TIP3    H123398   4.233   5.032   0.353  0.4686  0.2768  0.6612
  613TIP3    H223399   4.199   5.167   0.293 -1.3709 -0.2529  0.4425
  614TIP3   OH223400   3.655   0.681   7.891  0.4215 -0.1756  0.0405
  614TIP3    H123401   3.595   0.633   7.948  1.0579  0.5660  1.3663
  614TIP3    H223402   3.742   0.648   7.913  0.7802  0.9354  0.3217
  615TIP3   OH223403   3.051   5.799   8.024 -0.0508  0.0227  0.1163
  615TIP3    H123404   2.976   5.781   7.967  0.3219  0.5825 -0.5632
  615TIP3    H223405   3.058   5.895   8.025  0.7500 -0.0288  0.0391
  616TIP3   OH223406   1.005   6.364   0.701  0.3456 -0.0460  0.1743
  616TIP3    H123407   1.055   6.337   0.624 -0.5135  0.2323 -0.4943
  616TIP3    H223408   0.954   6.287   0.725  1.4736 -0.5200  1.2084
  617TIP3   OH223409   2.867   5.525   8.123  0.0427  0.2688  0.1870
  617TIP3    H123410   2.902   5.437   8.115 -0.7564 -0.2017  1.5836
  617TIP3    H223411   2.804   5.520   8.195  0.7372  2.2080  1.0018
  618TIP3   OH223412   6.232   3.684   2.352 -0.5181  0.8407 -0.3953
  618TIP3    H123413   6.274   3.733   2.423  0.2380  0.4319 -0.5552
  618TIP3    H223414   6.178   3.749   2.307 -3.3464  0.6120  2.2427
  619TIP3   OH223415   0.136   3.074   8.110 -0.7573  0.2035 -0.3248
  619TIP3    H123416   0.103   3.158   8.142  0.2255  0.4968 -0.0206
  619TIP3    H223417   0.228   3.073   8.137 -0.5053 -0.5559 -1.1621
  620TIP3   OH223418   4.612   6.702   1.344  0.3910  0.7022  0.3028
  620TIP3    H123419   4.570   6.733   1.424 -1.5408  0.4855 -0.5728
  620TIP3    H223420   4.671   6.774   1.319 -1.8212  2.4943 -0.1030
  621TIP3   OH223421   3.275   3.286   1.225  0.4697 -0.0882  1.2820
  621TIP3    H123422   3.236   3.335   1.153 -2.1752 -1.6133  1.5438
  621TIP3    H223423   3.322   3.352   1.277  1.4833  1.2228 -1.1464
  622TIP3   OH223424   4.113   3.460   7.052 -0.0000 -0.4413 -0.3527
  622TIP3    H123425   4.133   3.385   6.995  1.9585 -0.1739 -0.1061
  622TIP3    H223426   4.179   3.525   7.029  0.0627  0.1422  1.3540
  623TIP3   OH223427   5.137   2.912   1.733  0.0605 -0.2115  0.4537
  623TIP3    H123428   5.170   2.910   1.644  1.8051  0.1378  1.0545
  623TIP3    H223429   5.163   2.998   1.767 -2.7231  0.6803  0.5574
  624TIP3   OH223430   0.325   3.658   0.177 -0.1800  0.1273  0.1637
  624TIP3    H123431   0.403   3.711   0.195  0.6190 -1.3795  1.3618
  624TIP3    H223432   0.343   3.617   0.093  0.2618 -0.0831  0.3575
  625TIP3   OH223433   3.964   1.124   0.992 -0.0895  0.2624 -0.1274
  625TIP3    H123434   3.884   1.171   1.015 -0.2771  0.0801 -0.3985
  625TIP3    H223435   4.024   1.192   0.963  0.3279  0.5556  1.3659
  626TIP3   OH223436   1.626   5.145   7.920  0.1487 -0.2652  0.6671
  626TIP3    H123437   1.540   5.105   7.911 -0.4883  1.2062 -0.2760
  626TIP3    H223438   1.608   5.239   7.917  1.9133  0.0724 -1.0047
  627TIP3   OH223439   5.228   4.690   1.559  0.1027 -0.1678 -0.1468
  627TIP3    H123440   5.136   4.669   1.576 -0.6093  2.1195 -0.7159
  627TIP3    H223441   5.244   4.770   1.610  0.9763  0.9408 -2.0596
  628TIP3   OH223442   0.784   4.253   7.448  0.5800  0.3021  0.0838
  628TIP3    H123443   0.706   4.298   7.479  0.2637 -1.8880  2.9685
  628TIP3    H223444   0.775   4.251   7.353 -2.1757  1.3178  0.2391
  629TIP3   OH223445   0.912   5.035   8.108 -0.0351  0.0448 -0.0593
  629TIP3    H123446   0.958   4.951   8.111 -0.4422 -0.1634  1.9656
  629TIP3    H223447   0.819   5.011   8.109 -0.1545  0.5105  1.2723
  630TIP3   OH223448   1.155   6.459   8.528  0.1015 -0.5492 -0.0064
  630TIP3    H123449   1.134   6.552   8.516  1.2487 -0.1751  0.7256
  630TIP3    H223450   1.187   6.431   8.442 -2.5163 -0.9552 -0.9580
  631TIP3   OH223451   5.044   6.248   1.486 -0.2999 -0.0475 -0.0046
  631TIP3    H123452   5.024   6.241   1.393  3.4655  0.1203 -0.9948
  631TIP3    H223453   5.027   6.340   1.507 -0.4421  0.0911 -0.7104
  632TIP3   OH223454   4.847   4.110   8.518  0.4250  0.2482 -0.7148
  632TIP3    H123455   4.874   4.154   8.598 -0.9846  1.2584 -0.7572
  632TIP3    H223456   4.894   4.157   8.448  0.6003  0.2655 -0.5852
  633TIP3   OH223457   2.984   6.402   7.425 -0.1491 -0.6586 -0.3022
  633TIP3    H123458   2.968   6.311   7.450 -1.2821 -0.5450 -0.5532
  633TIP3    H223459   3.060   6.398   7.367  0.6718 -1.2631  0.7742
  634TIP3   OH223460   3.480   6.861   1.956 -0.5609  0.3818  0.1750
  634TIP3    H123461   3.489   6.786   1.897 -0.6157  0.9224 -0.5359
  634TIP3    H223462   3.389   6.889   1.945 -0.7933  0.0119  1.1103
  635TIP3   OH223463   4.298   1.590   8.510  0.5183  0.2962 -0.0652
  635TIP3    H123464   4.316   1.652   8.439 -0.9447  0.1230 -0.6266
  635TIP3    H223465   4.232   1.634   8.563  0.7083 -0.0946  0.5030
  636TIP3   OH223466   0.796   2.357   7.172 -0.3135 -0.1837  0.5106
  636TIP3    H123467   0.803   2.269   7.208 -1.3116 -0.2025  0.6785
  636TIP3    H223468   0.722   2.396   7.218  0.0759  0.7276  0.3909
  637TIP3   OH223469   6.523   2.732   7.156  0.0939 -0.3983 -0.1473
  637TIP3    H123470   6.505   2.795   7.225  1.5890  0.1387 -0.2171
  637TIP3    H223471   6.579   2.779   7.094  0.0769 -1.3633 -0.9231
  638TIP3   OH223472   3.602   0.009   0.880  0.1734 -0.4276 -0.1258
  638TIP3    H123473   3.611  -0.023   0.790  1.1693 -2.3513  0.5926
  638TIP3    H223474   3.537  -0.050   0.919 -0.5601  0.6550  0.3080
  639TIP3   OH223475   5.839   1.480   1.167  0.6752  0.1296 -0.5437
  639TIP3    H123476   5.822   1.450   1.078  0.6885 -1.0468 -0.1678
  639TIP3    H223477   5.901   1.416   1.203 -0.6307 -0.4210  0.8649
  640TIP3   OH223478   6.572   4.410   0.631  0.2651  0.6007  0.2806
  640TIP3    H123479   6.513   4.349   0.676  0.9642 -0.0157  0.3790
  640TIP3    H223480   6.660   4.374   0.644  0.5495  0.7393 -1.0558
  641TIP3   OH223481   2.240   4.768   1.804 -0.0414 -0.2640 -0.3537
  641TIP3    H123482   2.300   4.720   1.862  0.3179  0.4430 -0.1313
  641TIP3    H223483   2.169   4.706   1.788  0.0658 -0.6289  0.4916
  642TIP3   OH223484   1.032   2.884   0.110  0.4552 -0.1429  0.1589
  642TIP3    H123485   0.983   2.959   0.077 -0.6868 -0.6039  0.7475
  642TIP3    H223486   0.970   2.839   0.168  0.6406 -2.2792 -1.1887
  643TIP3   OH223487   6.246   4.770   0.341 -0.0359 -0.1009 -0.0097
  643TIP3    H123488   6.287   4.760   0.255  0.9226 -1.0208  0.5324
  643TIP3    H223489   6.272   4.691   0.389 -0.8216  0.2505  1.0175
  644TIP3   OH223490   0.017   1.185   0.173  0.1762  0.1571  0.4872
  644TIP3    H123491   0.021   1.091   0.188 -1.7555 -0.0234  0.1338
  644TIP3    H223492  -0.062   1.198   0.121  0.3256  1.9943  0.6351
  645TIP3   OH223493   3.566   1.189   7.286  0.0583 -0.3724 -0.0612
  645TIP3    H123494   3.588   1.229   7.202  0.0212 -0.7445 -0.2505
  645TIP3    H223495   3.499   1.246   7.323 -0.5631 -0.6880 -0.6864
  646TIP3   OH223496   4.611   5.526   8.242 -0.1530  0.2283  0.4011
  646TIP3    H123497   4.678   5.570   8.189 -0.6898  0.2777 -0.2509
  646TIP3    H223498   4.650   5.442   8.264 -0.4121 -0.3601 -1.2220
  647TIP3   OH223499   3.261   2.183   2.434 -0.1962 -0.7964 -0.3966
  647TIP3    H123500   3.219   2.261   2.397  2.6293  1.4611  0.7367
  647TIP3    H223501   3.214   2.167   2.516  1.4906  2.2440  1.3291
  648TIP3   OH223502   6.116   4.708   1.362  0.3653 -0.6161 -0.0504
  648TIP3    H123503   6.193   4.762   1.345 -0.3759 -0.1319 -2.2190
  648TIP3    H223504   6.119   4.639   1.296 -0.1379 -1.6553  0.9750
  649TIP3   OH223505   6.034   5.456   1.887  0.2576  0.2615  0.0151
  649TIP3    H123506   6.042   5.507   1.967 -0.4603  1.2277 -0.5171
  649TIP3    H223507   5.977   5.383   1.910  1.3941 -0.4047  0.8129
  650TIP3   OH223508   1.366   5.880   0.549 -0.5223  0.0390 -0.2845
  650TIP3    H123509   1.433   5.949   0.550 -2.3790  2.0192 -1.7168
  650TIP3    H223510   1.322   5.889   0.634 -0.7601  0.6412 -0.4676
  651TIP3   OH223511   4.318   6.186   1.132 -0.2113 -0.1888  0.0026
  651TIP3    H123512   4.350   6.216   1.047  0.3461 -0.4771  0.1113
  651TIP3    H223513   4.374   6.112   1.154 -2.1519 -1.9562 -0.7036
  652TIP3   OH223514   0.682   0.559   3.098 -0.6439 -0.7628 -0.3155
  652TIP3    H123515   0.770   0.569   3.136 -0.8479  0.5164 -0.1394
  652TIP3    H223516   0.686   0.476   3.052  0.2525 -1.3630  0.7884
  653TIP3   OH223517   6.234   4.111   1.683 -0.1902 -0.3305  0.1614
  653TIP3    H123518   6.244   4.158   1.601  0.0517 -0.1487  0.2924
  653TIP3    H223519   6.177   4.166   1.736 -0.2132 -0.3662  0.1735
  654TIP3   OH223520   4.535   4.498   6.683 -0.9976 -0.3071 -0.7116
  654TIP3    H123521   4.590   4.422   6.663 -0.0691 -0.3930  1.8825
  654TIP3    H223522   4.458   4.461   6.724 -0.1339  0.1335  1.4120
  655TIP3   OH223523   6.608   0.260   1.915 -0.4032  0.8429  0.0300
  655TIP3    H123524   6.622   0.170   1.944 -0.4869  0.7501 -0.2160
  655TIP3    H223525   6.683   0.309   1.949 -0.6249  0.7855  0.6186
  656TIP3   OH223526   4.458   5.581   7.512  0.0197 -0.3111 -0.3856
  656TIP3    H123527   4.511   5.550   7.585  0.0699 -2.4411 -1.2633
  656TIP3    H223528   4.495   5.667   7.491  1.0052 -0.3361  1.0867
  657TIP3   OH223529   3.267   2.190   0.510 -0.6085  0.0042  0.1736
  657TIP3    H123530   3.335   2.124   0.515 -0.6316  0.0143  0.7049
  657TIP3    H223531   3.305   2.260   0.456 -0.1687  0.0389  0.5182
  658TIP3   OH223532   1.046   0.404   7.648  0.1732 -0.5720  0.2372
  658TIP3    H123533   1.062   0.321   7.693 -0.7543 -1.3677 -0.8446
  658TIP3    H223534   1.132   0.432   7.619  0.4334 -1.4139  0.1725
  659TIP3   OH223535   0.573   1.832   1.698 -0.4822 -0.1674  1.1358
  659TIP3    H123536   0.498   1.849   1.641  0.1453  2.1831  0.9330
  659TIP3    H223537   0.546   1.756   1.750 -2.1435 -0.6803 -0.3633
  660TIP3   OH223538   3.707   0.864   0.003 -0.4500 -0.3243  0.0464
  660TIP3    H123539   3.802   0.869   0.007 -0.4053  1.1416 -1.5740
  660TIP3    H223540   3.685   0.786   0.055  1.7079 -1.4151 -0.5403
  661TIP3   OH223541   3.865   4.154   1.881 -0.2024 -0.1282 -0.0186
  661TIP3    H123542   3.784   4.206   1.876 -0.6169 -0.5833  1.4296
  661TIP3    H223543   3.850   4.095   1.954  1.4456 -0.2553  0.2392
  662TIP3   OH223544   0.419   2.105   6.629 -0.1119 -0.5354 -0.4255
  662TIP3    H123545   0.486   2.046   6.662 -0.6185  0.0113  1.7501
  662TIP3    H223546   0.355   2.049   6.585  0.1986 -1.4200  0.2453
  663TIP3   OH223547   2.331   0.465   7.448 -0.3789 -0.6029 -0.2912
  663TIP3    H123548   2.376   0.453   7.364 -0.8300 -0.0869 -0.6107
  663TIP3    H223549   2.402   0.465   7.512  0.1884  0.9583 -0.8614
  664TIP3   OH223550   0.281   6.100   0.954  0.3016 -0.2421  0.5400
  664TIP3    H123551   0.189   6.107   0.981  0.3384  0.7413  0.4730
  664TIP3    H223552   0.314   6.189   0.962  0.5231 -0.0050 -1.9829
  665TIP3   OH223553   0.356   1.078   7.757 -0.4549 -0.0199 -0.5205
  665TIP3    H123554   0.383   1.150   7.814  1.2296  0.2454 -1.5769
  665TIP3    H223555   0.279   1.110   7.712  0.0172  0.9683 -0.6487
  666TIP3   OH223556   5.457   2.861   0.982  0.1550  0.1075  0.0996
  666TIP3    H123557   5.401   2.918   1.035  0.6245  0.7292 -0.0589
  666TIP3    H223558   5.396   2.798   0.942 -0.8144  2.1366 -1.8798
  667TIP3   OH223559   1.771   0.806   8.251 -0.3547 -0.6090 -0.0177
  667TIP3    H123560   1.812   0.863   8.187 -0.9181  0.4046  0.5070
  667TIP3    H223561   1.843   0.780   8.309 -0.1805 -0.0249  0.0319
  668TIP3   OH223562   4.504   5.720   2.460 -0.2832  0.1695  0.6603
  668TIP3    H123563   4.409   5.707   2.466 -0.3839  0.4809 -0.1189
  668TIP3    H223564   4.515   5.789   2.395  0.4167  1.3594  1.9967
  669TIP3   OH223565   1.989   3.351   1.020  0.1256  0.5221 -0.3109
  669TIP3    H123566   2.045   3.425   1.042  0.0048 -0.5332  4.9077
  669TIP3    H223567   2.050   3.278   1.007  0.1064  0.5717 -0.6899
  670TIP3   OH223568   1.091   0.789   2.476 -0.5056 -0.0145  0.3115
  670TIP3    H123569   1.149   0.855   2.439  0.2710 -0.7136  0.2720
  670TIP3    H223570   1.103   0.712   2.421 -0.0174 -0.7811  1.4497
  671TIP3   OH223571   0.665   4.663   0.807 -0.7761 -0.1584  0.2009
  671TIP3    H123572   0.638   4.754   0.790 -0.1023 -0.2966 -1.7945
  671TIP3    H223573   0.745   4.651   0.756 -1.0199 -1.9840  0.1775
  672TIP3   OH223574   1.990   4.066   8.171 -0.1708 -0.0103  0.0607
  672TIP3    H123575   2.005   4.110   8.087 -0.0940 -0.9865 -0.4509
  672TIP3    H223576   2.056   4.103   8.229  0.8579 -0.5019 -0.7591
  673TIP3   OH223577   3.147   4.296   1.997  0.2657 -0.4092  0.6578
  673TIP3    H123578   3.220   4.251   1.954  0.0103 -0.2006 -0.0124
  673TIP3    H223579   3.101   4.340   1.925 -0.8988 -1.0691  0.9878
  674TIP3   OH223580   2.487   5.929   1.530 -0.1654 -0.6548  0.4423
  674TIP3    H123581   2.489   5.834   1.544 -1.7643 -0.9742 -1.2196
  674TIP3    H223582   2.397   5.954   1.548 -0.6673 -0.0614 -2.4900
  675TIP3   OH223583   0.889   5.114   7.807 -0.2772  0.6302 -0.3846
  675TIP3    H123584   0.796   5.131   7.823  0.1607  2.1257  0.7991
  675TIP3    H223585   0.916   5.059   7.880 -0.8271 -2.3890 -2.2636
  676TIP3   OH223586   0.397   5.468   0.241 -0.4553  0.2642 -0.0058
  676TIP3    H123587   0.323   5.519   0.275  0.5731  0.4418  2.1048
  676TIP3    H223588   0.461   5.534   0.216  0.7752  0.1148  2.4869
  677TIP3   OH223589   5.415   4.113   8.399  0.1432  0.2321  0.4776
  677TIP3    H123590   5.383   4.113   8.309 -0.3667 -3.3196  0.4999
  677TIP3    H223591   5.500   4.156   8.395  0.3787 -0.3502 -1.8353
  678TIP3   OH223592   4.005   1.747   7.698  0.3836 -0.1363 -0.0583
  678TIP3    H123593   3.981   1.780   7.612  0.8682 -0.5962 -0.3738
  678TIP3    H223594   3.927   1.763   7.752  0.2355  0.5598 -0.4605
  679TIP3   OH223595   0.894   3.834   1.733 -0.4959  0.2229 -0.4747
  679TIP3    H123596   0.922   3.925   1.728 -2.6360  1.0004  0.6187
  679TIP3    H223597   0.844   3.819   1.653 -1.3015  0.4539 -0.0243
  680TIP3   OH223598   1.227   5.325   8.021  0.7147 -0.6355  0.0992
  680TIP3    H123599   1.304   5.360   7.977  1.5361 -2.4058  0.0497
  680TIP3    H223600   1.156   5.336   7.958  0.8841  0.9916  0.1372
  681TIP3   OH223601   3.682   2.778   1.682 -0.1315 -0.2125  0.3186
  681TIP3    H123602   3.672   2.753   1.774  3.6881 -0.1502  0.9052
  681TIP3    H223603   3.672   2.696   1.633 -1.9323 -0.2861  0.7360
  682TIP3   OH223604   4.408   2.133   0.558  0.1786  0.0196  0.1455
  682TIP3    H123605   4.499   2.133   0.527 -0.1702 -0.5179 -0.9014
  682TIP3    H223606   4.359   2.175   0.488 -0.3463  0.6169  0.8561
  683TIP3   OH223607   3.203   2.852   6.653 -0.5264  0.4147  0.4342
  683TIP3    H123608   3.175   2.763   6.631 -1.5606  0.8980 -0.2768
  683TIP3    H223609   3.281   2.839   6.708  0.6312 -0.8956 -1.3772
  684TIP3   OH223610   5.289   5.868   2.751  0.0353  0.1123 -0.0814
  684TIP3    H123611   5.342   5.853   2.673  1.1956 -0.3782  0.7668
  684TIP3    H223612   5.335   5.938   2.798 -0.8460  0.6503 -0.0018
  685TIP3   OH223613   5.920   0.337   7.550 -0.6320 -0.2654  0.4274
  685TIP3    H123614   5.944   0.411   7.493  2.5752 -1.1533  0.4445
  685TIP3    H223615   5.881   0.273   7.490  1.1146 -0.4918 -0.5225
  686TIP3   OH223616   5.615   0.254   6.766  0.3658 -0.6812  0.1864
  686TIP3    H123617   5.640   0.166   6.794  0.9135 -1.0341 -1.2826
  686TIP3    H223618   5.575   0.241   6.679  0.5885  0.5227 -0.1160
  687TIP3   OH223619   1.913   3.304   2.997  0.4600  0.2402 -0.5135
  687TIP3    H123620   1.861   3.338   3.069  0.7087  0.6486 -0.5214
  687TIP3    H223621   1.851   3.254   2.943  0.4253 -0.7256  0.3873
  688TIP3   OH223622   5.015   0.911   7.899 -0.2621  0.5467  0.1674
  688TIP3    H123623   5.022   0.921   7.804  0.3136 -0.5054  0.0800
  688TIP3    H223624   5.103   0.882   7.926 -0.4147  0.8662  1.0189
  689TIP3   OH223625   3.566   3.497   0.464 -1.0356  0.5181 -0.0600
  689TIP3    H123626   3.482   3.531   0.496 -0.3990  1.1353  0.9948
  689TIP3    H223627   3.541   3.428   0.402 -2.3201  0.6329  0.2928
  690TIP3   OH223628   1.342   6.304   1.784  0.8195  0.0401 -0.1844
  690TIP3    H123629   1.403   6.297   1.857 -0.2322 -1.0815  0.6366
  690TIP3    H223630   1.384   6.257   1.712  0.3719 -1.9395  0.7899
  691TIP3   OH223631   1.818   0.649   1.276 -0.1926 -0.1387  0.8057
  691TIP3    H123632   1.786   0.621   1.362 -1.2046 -0.1930  0.4213
  691TIP3    H223633   1.754   0.613   1.214  0.3356  0.1994  0.0555
  692TIP3   OH223634   0.876   0.578   1.559  0.0540 -0.6284  0.4458
  692TIP3    H123635   0.939   0.518   1.518 -0.5054 -0.8865 -0.0306
  692TIP3    H223636   0.912   0.591   1.648  1.0046 -0.4379  0.0517
  693TIP3   OH223637   2.890   0.454   1.305 -0.2274 -0.2430 -0.1437
  693TIP3    H123638   2.822   0.387   1.316  1.3532 -1.7056  1.5897
  693TIP3    H223639   2.845   0.537   1.323 -1.7158 -1.0802  0.1963
  694TIP3   OH223640   4.661   2.679   0.134  0.2072 -0.0861 -0.1090
  694TIP3    H123641   4.689   2.756   0.084 -0.5681  0.4195  0.2030
  694TIP3    H223642   4.722   2.610   0.109 -0.2219  0.1128 -1.8249
  695TIP3   OH223643   4.159   5.744   8.077 -0.0970  0.3843 -0.0171
  695TIP3    H123644   4.106   5.795   8.138 -1.5932  0.4960 -1.3241
  695TIP3    H223645   4.194   5.808   8.015 -1.0579  0.0047 -0.9961
  696TIP3   OH223646   4.357   4.273   7.305 -0.1034  0.4744  0.0080
  696TIP3    H123647   4.387   4.343   7.246  1.6951 -0.4065 -0.1977
  696TIP3    H223648   4.324   4.205   7.247 -0.4559  0.5406  0.1318
  697TIP3   OH223649   1.083   5.391   6.893 -0.1702 -0.1041 -0.1296
  697TIP3    H123650   1.075   5.433   6.979 -0.8494 -2.1121  0.8715
  697TIP3    H223651   1.139   5.315   6.909 -0.4347 -0.5973 -1.4172
  698TIP3   OH223652   2.764   0.755   2.717  0.3781  0.4766  0.2006
  698TIP3    H123653   2.834   0.692   2.734  0.2606 -0.3132 -1.8764
  698TIP3    H223654   2.726   0.773   2.803  0.3961 -2.3403  0.8925
  699TIP3   OH223655   0.156   2.356   0.908  0.5240  0.0185  0.1531
  699TIP3    H123656   0.094   2.285   0.929  2.0988 -1.6685 -0.6466
  699TIP3    H223657   0.239   2.311   0.892  1.6542  2.1041 -0.1371
  700TIP3   OH223658   0.546   0.632   7.289 -0.2513  0.7789  0.6785
  700TIP3    H123659   0.456   0.652   7.266  0.4111  0.9670 -2.1315
  700TIP3    H223660   0.598   0.668   7.216  2.0980  0.6773  2.1899
  701TIP3   OH223661   1.569   0.073   1.289  0.3997 -0.0968  0.1288
  701TIP3    H123662   1.506   0.116   1.230 -1.0915  0.7635  2.2156
  701TIP3    H223663   1.517   0.047   1.365  2.4862  0.2646  1.7808
  702TIP3   OH223664   5.225   2.883   8.253  0.1536  0.1684  0.5477
  702TIP3    H123665   5.258   2.900   8.164  1.7740 -1.5519  0.7565
  702TIP3    H223666   5.302   2.896   8.309 -0.6613  0.4542  1.6337
  703TIP3   OH223667   5.959   4.039   7.840 -0.0316 -0.4393 -0.2138
  703TIP3    H123668   5.936   4.094   7.765  1.2762 -1.1944 -1.2247
  703TIP3    H223669   5.980   4.101   7.910 -0.3718  0.3058 -0.7602
  704TIP3   OH223670   5.590   2.149   6.773  0.4814 -0.8945 -0.7319
  704TIP3    H123671   5.645   2.071   6.770  0.2384 -1.0576 -1.0603
  704TIP3    H223672   5.650   2.222   6.757  0.7867 -0.9696  0.0582
  705TIP3   OH223673   1.245   1.843   1.379 -0.3672  0.6067  0.0385
  705TIP3    H123674   1.282   1.931   1.374 -0.1412  0.5062 -0.0335
  705TIP3    H223675   1.255   1.807   1.291 -0.1672  0.3881  0.1518
  706TIP3   OH223676   5.667   0.527   0.200  0.0242  0.4943  0.1592
  706TIP3    H123677   5.640   0.611   0.163 -0.7173 -0.4647 -1.6240
  706TIP3    H223678   5.585   0.486   0.229  0.4030  0.4800  1.2310
  707TIP3   OH223679   1.167   0.335   3.029 -0.5097  0.7825  0.0357
  707TIP3    H123680   1.117   0.255   3.017  2.0318 -0.8798 -0.3192
  707TIP3    H223681   1.155   0.359   3.121  3.2135 -3.5306  2.0529
  708TIP3   OH223682   2.789   4.999   2.009  0.3624  0.5604  0.0956
  708TIP3    H123683   2.810   4.982   1.917  0.0137  0.8291 -0.0367
  708TIP3    H223684   2.849   4.943   2.058  0.9420  0.8302 -0.2846
  709TIP3   OH223685   2.957   3.574   0.828  0.6679  0.3666  0.4431
  709TIP3    H123686   2.984   3.585   0.737 -1.6201  2.2478 -0.0886
  709TIP3    H223687   2.958   3.662   0.865 -1.2908  0.0859  1.3239
  710TIP3   OH223688   1.513   0.282   6.587 -0.6583  0.0565 -0.3467
  710TIP3    H123689   1.432   0.238   6.615 -1.1611  0.2772 -1.3919
  710TIP3    H223690   1.583   0.231   6.627 -1.2093 -1.7574 -1.5237
  711TIP3   OH223691   3.284   2.245   7.092 -0.1208 -0.2688 -0.1935
  711TIP3    H123692   3.360   2.232   7.148 -1.8367 -1.3614  2.0610
  711TIP3    H223693   3.319   2.251   7.004  2.5417 -0.8235  0.7441
  712TIP3   OH223694   6.480   6.186   1.977  0.6025  0.5030  0.3635
  712TIP3    H123695   6.560   6.235   1.960  0.2361  0.6395 -1.1560
  712TIP3    H223696   6.500   6.096   1.950  0.8029  0.1240  1.7200
  713TIP3   OH223697   5.680   2.280   7.076 -0.6148 -0.3703  0.0008
  713TIP3    H123698   5.759   2.332   7.092 -1.9785  1.4189  1.2337
  713TIP3    H223699   5.713   2.200   7.036  1.8294  0.2850  0.5158
  714TIP3   OH223700   3.108   0.165   0.261 -0.2469 -0.6955  0.9625
  714TIP3    H123701   3.061   0.117   0.193 -1.3943 -2.4203  2.8529
  714TIP3    H223702   3.132   0.248   0.219 -1.3935 -1.4231 -1.3342
  715TIP3   OH223703   4.766   4.037   1.858  0.2412  0.3135  0.0103
  715TIP3    H123704   4.817   3.971   1.813 -1.4941 -1.5940  0.6759
  715TIP3    H223705   4.831   4.095   1.899  1.8433  0.8492 -2.9950
  716TIP3   OH223706   6.197   2.969   1.184 -0.3670 -0.8197 -0.3507
  716TIP3    H123707   6.105   2.957   1.161 -0.5222 -1.7075  0.7125
  716TIP3    H223708   6.200   3.055   1.226 -1.0907 -1.6254  1.4344
  717TIP3   OH223709   0.301   6.735   1.073  0.1481 -0.2725 -0.1153
  717TIP3    H123710   0.334   6.807   1.127 -1.2737  0.5456 -0.2951
  717TIP3    H223711   0.357   6.737   0.995  0.3924  0.3696  0.0688
  718TIP3   OH223712   5.228   4.740   0.070  0.1942 -0.1981 -0.1725
  718TIP3    H123713   5.227   4.835   0.083  0.5217 -0.2114 -0.0449
  718TIP3    H223714   5.158   4.707   0.126 -0.1699  0.0026 -0.5017
  719TIP3   OH223715   2.235   5.637   7.947 -0.6826  0.3480  0.2814
  719TIP3    H123716   2.141   5.639   7.931 -0.5974 -1.4872 -0.7549
  719TIP3    H223717   2.267   5.562   7.896  1.3436  0.9192  0.5987
  720TIP3   OH223718   5.898   1.582   6.864  0.0373 -0.9894 -0.2964
  720TIP3    H123719   5.814   1.612   6.828  0.4940  1.6799  0.6133
  720TIP3    H223720   5.964   1.629   6.814  0.7868  0.3108  1.7864
  721TIP3   OH223721   1.671   1.136   0.620  0.0110 -0.1280  0.1550
  721TIP3    H123722   1.707   1.211   0.668 -0.4445 -0.6080  1.2771
  721TIP3    H223723   1.625   1.176   0.546 -3.7519  1.1300  2.8788
  722TIP3   OH223724   1.194   4.017   0.669 -0.3123  0.0798 -0.2829
  722TIP3    H123725   1.262   4.083   0.681  0.6345 -0.9891  0.5008
  722TIP3    H223726   1.152   4.010   0.754  1.1538 -1.9268  0.3586
  723TIP3   OH223727   4.114   0.025   2.205  0.5172  0.4204 -0.7254
  723TIP3    H123728   4.088  -0.061   2.236  0.2413  0.7679  0.0338
  723TIP3    H223729   4.103   0.020   2.110  2.1489 -0.9109 -0.8827
  724TIP3   OH223730   2.667   1.803   7.872  0.0419 -0.3558  0.7946
  724TIP3    H123731   2.707   1.886   7.899  0.1634  0.0477 -0.5478
  724TIP3    H223732   2.579   1.807   7.908  0.1391  0.2329  0.9936
  725TIP3   OH223733   0.378   0.500   2.921  0.0505 -0.1143 -0.0970
  725TIP3    H123734   0.338   0.580   2.887  1.3076  0.8244  0.5360
  725TIP3    H223735   0.399   0.520   3.013  1.3603 -0.7713 -0.2216
  726TIP3   OH223736   4.213   0.826   7.860 -0.0293 -0.3100  0.8821
  726TIP3    H123737   4.266   0.885   7.914 -2.1181  0.9949  1.6748
  726TIP3    H223738   4.165   0.773   7.923  1.8678 -3.0475  0.1722
  727TIP3   OH223739   2.957   0.291   1.078  0.2329 -0.4958 -0.1213
  727TIP3    H123740   2.993   0.259   0.995  1.2278  1.0040 -0.3092
  727TIP3    H223741   2.883   0.346   1.052 -0.4003 -1.2293  0.0953
  728TIP3   OH223742   5.317   3.237   7.579 -0.6409 -0.3336 -0.8549
  728TIP3    H123743   5.378   3.164   7.590 -0.8276 -0.2872  0.7218
  728TIP3    H223744   5.255   3.206   7.513  0.5959 -0.6954 -1.8770
  729TIP3   OH223745   1.242   3.107   8.055 -0.0752  0.3558  0.3409
  729TIP3    H123746   1.197   3.027   8.030  0.6077  0.1685 -0.3501
  729TIP3    H223747   1.172   3.171   8.069 -0.5549  0.2132 -1.2026
  730TIP3   OH223748   0.779   4.604   7.350 -0.4123  0.8495  0.0959
  730TIP3    H123749   0.787   4.699   7.366 -0.4465  0.8749 -0.0349
  730TIP3    H223750   0.691   4.595   7.313 -1.4623  0.4681  2.4668
  731TIP3   OH223751   2.568   1.400   0.633  0.1493  0.3019 -0.3215
  731TIP3    H123752   2.482   1.440   0.649 -0.6333 -1.8242  1.1798
  731TIP3    H223753   2.605   1.388   0.721  2.1349  1.3858 -0.9540
  732TIP3   OH223754   1.788   5.748   7.478  0.0325 -0.4000  0.2694
  732TIP3    H123755   1.712   5.713   7.432 -1.5601  0.5771  1.9987
  732TIP3    H223756   1.814   5.825   7.428  0.2730 -1.0685 -0.6527
  733TIP3   OH223757   1.222   0.010   2.710  0.5175  0.1988 -0.2971
  733TIP3    H123758   1.139   0.002   2.663  0.2404  0.4961  0.1355
  733TIP3    H223759   1.216   0.093   2.756  0.7946 -0.0788  0.2475
  734TIP3   OH223760   6.072   2.400   0.503 -0.0103  0.1735  0.3105
  734TIP3    H123761   6.114   2.445   0.576 -1.2936  0.5470  0.8519
  734TIP3    H223762   5.991   2.449   0.488  0.0828 -0.0853 -1.1665
  735TIP3   OH223763   2.798   6.468   2.063 -0.2814 -0.1707 -0.0736
  735TIP3    H123764   2.762   6.557   2.070 -0.0532 -0.1155  0.4668
  735TIP3    H223765   2.760   6.421   2.138  1.0999  0.0144  0.7871
  736TIP3   OH223766   3.447   5.057   8.534 -0.5493 -0.3144  0.7554
  736TIP3    H123767   3.420   5.102   8.454 -1.1031  0.3374  1.2979
  736TIP3    H223768   3.540   5.036   8.519 -0.3907  0.6484  0.3292
  737TIP3   OH223769   3.671   0.035   6.327  0.1754  0.2054 -0.1955
  737TIP3    H123770   3.655   0.123   6.359  1.9064  0.6714 -0.4939
  737TIP3    H223771   3.730  -0.004   6.392 -0.6528 -0.7720 -0.0131
  738TIP3   OH223772   4.639   1.941   7.681 -0.2137 -0.7508  0.6696
  738TIP3    H123773   4.627   2.028   7.719  0.1027 -0.2627 -0.3417
  738TIP3    H223774   4.619   1.881   7.753 -0.8780  0.1481  1.2502
  739TIP3   OH223775   1.227   6.756   0.490  0.2156  0.0745  0.3474
  739TIP3    H123776   1.278   6.727   0.566 -0.2618 -0.6635  0.3898
  739TIP3    H223777   1.204   6.676   0.445  0.7365  0.5233 -0.7487
  740TIP3   OH223778   1.808   0.402   0.857 -0.9534 -0.3441 -0.4231
  740TIP3    H123779   1.845   0.314   0.861 -2.6055 -1.1575 -1.8522
  740TIP3    H223780   1.724   0.391   0.812 -1.5764  1.8494  0.0739
  741TIP3   OH223781   6.902   4.766   0.786  0.3238 -0.0542  0.5110
  741TIP3    H123782   6.993   4.755   0.813  0.4720 -4.5471 -0.9082
  741TIP3    H223783   6.851   4.737   0.863  0.1202  0.9297  0.7592
  742TIP3   OH223784   3.109   1.701   0.891 -0.7665 -0.5480 -0.1549
  742TIP3    H123785   3.057   1.643   0.947 -0.1503  0.2290  1.2697
  742TIP3    H223786   3.198   1.694   0.925 -0.0363 -1.2022 -2.0245
  743TIP3   OH223787   3.032   5.868   0.202  0.1206  0.9695  0.0227
  743TIP3    H123788   3.127   5.862   0.199  0.1211  1.1271 -0.2774
  743TIP3    H223789   3.010   5.863   0.295  0.4223  0.9487  0.0918
  744TIP3   OH223790   1.879   0.122   2.272  0.6028 -0.7180  0.4675
  744TIP3    H123791   1.897   0.030   2.252  1.1370 -0.9249  1.7552
  744TIP3    H223792   1.964   0.157   2.299  0.6113  0.4327 -0.9429
  745TIP3   OH223793   0.611   4.925   0.200  0.2649  0.2122  0.0600
  745TIP3    H123794   0.653   4.913   0.285  1.6602 -0.0311 -0.6363
  745TIP3    H223795   0.627   5.016   0.177 -1.8580  0.8669  0.9243
  746TIP3   OH223796   6.694   2.534   1.177 -0.0843  0.0191  0.2375
  746TIP3    H123797   6.695   2.439   1.183 -0.8071  0.0492  0.9916
  746TIP3    H223798   6.608   2.555   1.138  0.1067  0.3559 -0.0092
  747TIP3   OH223799   3.814   4.293   1.115  0.3543 -0.1722  0.0270
  747TIP3    H123800   3.876   4.290   1.042 -1.4236  0.1252 -1.5597
  747TIP3    H223801   3.769   4.377   1.105 -2.6649 -1.7417 -0.9783
  748TIP3   OH223802   3.054   0.549   8.563 -0.0411 -0.5698  0.0867
  748TIP3    H123803   3.106   0.603   8.622  1.7461 -0.9111 -1.0896
  748TIP3    H223804   3.021   0.611   8.497  0.1282 -0.5771 -0.0053
  749TIP3   OH223805   2.736   5.170   2.360 -0.2547  0.1308 -0.2347
  749TIP3    H123806   2.763   5.107   2.427  0.6656 -0.3633 -1.0582
  749TIP3    H223807   2.816   5.218   2.338 -0.5622  0.3248 -0.9505
  750TIP3   OH223808   4.683   3.080   7.326 -0.5380 -0.0525 -0.2660
  750TIP3    H123809   4.619   3.014   7.298  1.1067 -3.2901  2.7238
  750TIP3    H223810   4.681   3.076   7.422 -0.0310  4.1460  0.1003
  751TIP3   OH223811   6.573   5.612   7.772 -0.2642 -0.2478  0.3347
  751TIP3    H123812   6.648   5.661   7.737 -0.4018 -1.7524 -2.2620
  751TIP3    H223813   6.608   5.526   7.792 -0.7436 -0.1329  1.7738
  752TIP3   OH223814   3.458   4.175   2.120  0.3596 -0.1413  0.2468
  752TIP3    H123815   3.552   4.164   2.105  0.7422  3.4421 -0.9885
  752TIP3    H223816   3.448   4.172   2.215  1.3338 -2.4644  0.3519
  753TIP3   OH223817   6.252   3.577   1.772  0.0790  0.0669  0.5053
  753TIP3    H123818   6.210   3.492   1.786 -0.6109  0.6074  1.8921
  753TIP3    H223819   6.326   3.577   1.831  1.3895 -0.3885 -1.0570
  754TIP3   OH223820   2.206   3.811   8.107  0.3245  0.0121  0.3297
  754TIP3    H123821   2.281   3.869   8.093  0.5986 -0.7168 -1.4701
  754TIP3    H223822   2.137   3.848   8.052  0.3588 -1.0859 -0.4724
  755TIP3   OH223823   1.955   4.564   7.455 -0.2016  0.1093 -0.8763
  755TIP3    H123824   2.007   4.632   7.411 -0.5902 -1.5107 -4.1875
  755TIP3    H223825   2.009   4.485   7.447 -0.2973 -0.3073  1.7765
  756TIP3   OH223826   4.969   1.681   0.972 -0.0673  0.0333 -0.1541
  756TIP3    H123827   4.967   1.594   1.013 -1.3120 -0.4251 -1.1260
  756TIP3    H223828   5.058   1.713   0.988  0.2010 -1.1264  0.8113
  757TIP3   OH223829   5.585   5.708   0.111 -0.3362 -0.0437  0.0433
  757TIP3    H123830   5.547   5.626   0.143 -0.4430  0.5163  1.4341
  757TIP3    H223831   5.665   5.681   0.066 -0.2074 -0.9026  0.7405
  758TIP3   OH223832   6.893   5.080   1.670 -0.2245  0.3930  0.0913
  758TIP3    H123833   6.846   5.127   1.738 -2.1061 -3.7922  2.0429
  758TIP3    H223834   6.947   5.016   1.717  2.9069  1.0035 -2.3124
  759TIP3   OH223835   1.578   5.506   1.121 -0.1591 -0.2826  0.0237
  759TIP3    H123836   1.519   5.506   1.196  1.2607 -1.7653  1.2032
  759TIP3    H223837   1.520   5.512   1.045 -1.5907  2.3393  1.1766
  760TIP3   OH223838   4.873   2.511   0.777  0.6332  0.7180  0.1481
  760TIP3    H123839   4.947   2.486   0.722  0.2168 -0.2448  0.0077
  760TIP3    H223840   4.828   2.580   0.727  0.3925  0.0179 -0.6209
  761TIP3   OH223841   4.279   2.714   8.347 -0.1333 -0.0777  0.3746
  761TIP3    H123842   4.307   2.805   8.358  1.4144 -0.5274  0.2894
  761TIP3    H223843   4.343   2.676   8.286  0.6131 -1.8316  2.1558
  762TIP3   OH223844   5.652   1.145   0.682 -0.7736 -0.5175 -0.2272
  762TIP3    H123845   5.615   1.196   0.754  1.9215  1.0699  0.1596
  762TIP3    H223846   5.741   1.124   0.710 -0.3319 -1.6705 -2.2498
  763TIP3   OH223847   4.469   5.308   2.283  0.0783 -0.3921 -0.2527
  763TIP3    H123848   4.464   5.397   2.319  1.1490 -0.2507 -0.4211
  763TIP3    H223849   4.399   5.261   2.327 -0.3571  0.4764  0.0128
  764TIP3   OH223850   3.237   1.816   2.205 -0.0137 -0.5454  0.2473
  764TIP3    H123851   3.246   1.900   2.161 -1.1434  0.1697  1.3351
  764TIP3    H223852   3.286   1.825   2.287  0.9603 -1.4155 -0.2077
  765TIP3   OH223853   3.186   2.734   7.424  0.4386  0.1326 -0.0206
  765TIP3    H123854   3.144   2.795   7.363  1.1003  1.0311  0.4072
  765TIP3    H223855   3.268   2.710   7.381 -0.0329 -0.8646 -0.4096
  766TIP3   OH223856   6.528   1.039   7.536  0.1243 -0.0631 -0.1906
  766TIP3    H123857   6.473   1.116   7.518 -0.9943 -0.3771  1.6577
  766TIP3    H223858   6.472   0.964   7.516  0.1766 -0.3819  0.8002
  767TIP3   OH223859   4.573   0.929   6.728  0.1617  0.3093  0.0850
  767TIP3    H123860   4.553   0.849   6.680 -1.1127  1.1774 -0.9261
  767TIP3    H223861   4.495   0.984   6.716  1.6929  2.4145 -0.7980
  768TIP3   OH223862   4.169   0.226   7.905 -0.3813 -0.4405 -0.0656
  768TIP3    H123863   4.260   0.257   7.914  0.3173 -2.1234 -0.7782
  768TIP3    H223864   4.162   0.156   7.970 -1.5829  0.4703  0.8201
  769TIP3   OH223865   6.644   0.929   1.923  0.9048  0.1733  0.0633
  769TIP3    H123866   6.673   0.858   1.980  0.7546  0.6839  0.7910
  769TIP3    H223867   6.725   0.968   1.891  0.9944 -0.9487 -1.1589
  770TIP3   OH223868   4.296   2.250   1.715 -0.0382 -0.2119 -0.3714
  770TIP3    H123869   4.240   2.312   1.668 -0.9472 -0.7928 -0.0829
  770TIP3    H223870   4.351   2.211   1.647 -1.4025 -1.1130 -0.9945
  771TIP3   OH223871   5.828   6.895   1.658  0.2812 -0.4517  0.4209
  771TIP3    H123872   5.770   6.970   1.671  1.1462 -0.1072  2.8239
  771TIP3    H223873   5.786   6.844   1.589 -2.4487  0.2372  1.4465
  772TIP3   OH223874   4.400   0.588   2.978 -0.0153  0.0763  0.3181
  772TIP3    H123875   4.427   0.502   2.946  0.0116  0.5320 -0.9663
  772TIP3    H223876   4.405   0.582   3.073  0.7500 -1.0957  0.2172
  773TIP3   OH223877   4.042   4.275   8.541  0.2518  0.0043 -0.9286
  773TIP3    H123878   4.078   4.237   8.621  0.7744 -0.1105 -1.2118
  773TIP3    H223879   3.952   4.243   8.537 -0.2100  1.0768  0.3033
  774TIP3   OH223880   6.742   4.880   0.577  0.6734 -0.2139 -0.0733
  774TIP3    H123881   6.816   4.854   0.633  0.8194  0.1043 -0.1162
  774TIP3    H223882   6.665   4.859   0.630  0.8262  0.7819  0.5645
  775TIP3   OH223883   2.128   3.230   1.361  0.5539 -0.0500  0.1128
  775TIP3    H123884   2.217   3.236   1.326  1.1790 -1.8811  1.2597
  775TIP3    H223885   2.133   3.271   1.447  0.7857 -1.7501  0.9503
  776TIP3   OH223886   6.795   4.420   2.103 -0.3329 -0.3537 -0.3544
  776TIP3    H123887   6.817   4.328   2.086 -0.9138 -0.2880 -1.6264
  776TIP3    H223888   6.789   4.426   2.198 -0.2993 -1.6413 -0.2490
  777TIP3   OH223889   1.115   4.867   1.281  0.6428  0.0914  0.5122
  777TIP3    H123890   1.189   4.860   1.341  0.0897  1.3219  1.4059
  777TIP3    H223891   1.126   4.953   1.240 -0.4950  0.4756  0.9745
  778TIP3   OH223892   2.385   1.988   0.670  0.9394 -0.2361  0.6159
  778TIP3    H123893   2.366   1.964   0.579  2.1591 -1.1136  0.5775
  778TIP3    H223894   2.471   1.950   0.688  1.2820  0.9896  1.7473
  779TIP3   OH223895   5.670   3.039   0.124  0.7360 -0.0568  0.3095
  779TIP3    H123896   5.709   3.033   0.037 -2.2529  0.0789 -1.1737
  779TIP3    H223897   5.691   2.955   0.165 -1.7414 -2.2822 -2.4681
  780TIP3   OH223898   1.616   1.770   2.739 -0.0447 -0.2999  0.2715
  780TIP3    H123899   1.528   1.752   2.706 -0.3664 -0.8651  1.3707
  780TIP3    H223900   1.601   1.819   2.820  0.7491  2.1976 -0.9859
  781TIP3   OH223901   3.506   2.401   1.387  0.1219 -0.3382  0.3701
  781TIP3    H123902   3.430   2.456   1.367 -1.0921 -2.3713 -0.9738
  781TIP3    H223903   3.520   2.351   1.307  3.2462  0.2959  0.3929
  782TIP3   OH223904   6.615   5.612   1.598 -0.0739  0.4310 -0.4650
  782TIP3    H123905   6.548   5.580   1.537 -1.0738  0.1069  0.7845
  782TIP3    H223906   6.696   5.571   1.567 -0.7545 -0.6138 -0.9100
  783TIP3   OH223907   4.134   0.584   2.437 -0.3791  0.4586 -0.3681
  783TIP3    H123908   4.083   0.653   2.480  0.2014  0.6130  0.0909
  783TIP3    H223909   4.220   0.623   2.424  0.6192 -0.8574  1.8185
  784TIP3   OH223910   0.215   0.739   2.852  0.2619  0.2240 -0.2587
  784TIP3    H123911   0.262   0.814   2.888  0.1666  0.4969 -0.7009
  784TIP3    H223912   0.131   0.774   2.822 -0.3136 -0.2922  0.6903
  785TIP3   OH223913   5.906   6.256   2.077 -0.1996  0.2817  0.0274
  785TIP3    H123914   5.993   6.263   2.037  0.4748 -0.3814  1.2783
  785TIP3    H223915   5.875   6.346   2.083  0.7336  0.6095  0.2181
  786TIP3   OH223916   5.662   4.399   0.636  0.6582 -0.1466  0.7019
  786TIP3    H123917   5.628   4.311   0.648 -0.2413 -0.0507 -0.7694
  786TIP3    H223918   5.680   4.405   0.542  1.8324  0.8559  0.9642
  787TIP3   OH223919   0.819   6.642   7.509 -0.3507 -0.3882  0.1700
  787TIP3    H123920   0.850   6.732   7.523 -1.0557 -0.0145 -0.5724
  787TIP3    H223921   0.898   6.592   7.493  0.1058 -0.0170  1.1302
  788TIP3   OH223922   1.003   2.872   7.176  0.1196  0.2018  0.1034
  788TIP3    H123923   0.939   2.825   7.123 -0.6896  0.6892  0.6174
  788TIP3    H223924   0.987   2.965   7.157  0.2815  0.3536  0.6794
  789TIP3   OH223925   4.015   4.638   8.176  0.0966 -0.4132 -0.2252
  789TIP3    H123926   3.985   4.727   8.160 -0.8180 -0.8527 -1.0975
  789TIP3    H223927   3.980   4.616   8.262  3.1273  1.1855  1.5574
  790TIP3   OH223928   3.383   6.805   7.581 -0.1366 -0.9530 -0.7359
  790TIP3    H123929   3.395   6.874   7.647  1.6448 -1.7707 -0.1253
  790TIP3    H223930   3.289   6.795   7.573 -0.4157  0.5724  0.2097
  791TIP3   OH223931   5.241   0.775   0.915 -0.3235  0.0655  0.1918
  791TIP3    H123932   5.299   0.712   0.873  0.3474  0.2934  0.7458
  791TIP3    H223933   5.222   0.737   1.000 -2.3983 -0.8198 -0.6082
  792TIP3   OH223934   3.312   5.458   2.194 -0.2499 -0.5775 -0.5378
  792TIP3    H123935   3.348   5.525   2.252  0.4167 -0.5679 -0.9545
  792TIP3    H223936   3.247   5.412   2.248  0.0934 -0.3290  0.0971
  793TIP3   OH223937   4.658   4.160   8.108 -0.2364  0.1717  0.3727
  793TIP3    H123938   4.628   4.251   8.108 -2.2041 -0.4232 -0.3482
  793TIP3    H223939   4.631   4.127   8.194  0.4080  0.2459  0.6039
  794TIP3   OH223940   0.223   1.396   0.670 -0.4414 -0.0915  0.5003
  794TIP3    H123941   0.281   1.336   0.717 -1.2441  0.0645  1.7332
  794TIP3    H223942   0.155   1.339   0.633  0.4075 -0.2654 -0.8835
  795TIP3   OH223943   1.415   0.688   8.253  0.4141 -0.5122 -0.0701
  795TIP3    H123944   1.323   0.678   8.229 -0.2828  0.0367  2.1525
  795TIP3    H223945   1.448   0.756   8.194 -1.1131  0.5829  0.2876
  796TIP3   OH223946   4.656   4.712   1.281 -0.2491 -0.5496  0.0684
  796TIP3    H123947   4.607   4.744   1.205 -0.3768  2.7269  1.3870
  796TIP3    H223948   4.607   4.745   1.357  1.1435 -1.7264  1.5603
  797TIP3   OH223949   0.247   2.003   7.721  0.4420 -0.2796 -0.0517
  797TIP3    H123950   0.317   2.033   7.779 -0.4865  1.0983  0.3983
  797TIP3    H223951   0.208   2.083   7.687 -0.4509 -1.0385 -0.8651
  798TIP3   OH223952   6.118   2.208   0.116  0.4485  0.1611  0.1315
  798TIP3    H123953   6.101   2.163   0.198  0.5565 -0.6622 -0.2844
  798TIP3    H223954   6.034   2.244   0.090 -0.0140 -1.1766 -0.3253
  799TIP3   OH223955   4.577   1.995   1.365  0.0524 -0.5224 -0.2750
  799TIP3    H123956   4.590   1.948   1.283  3.0183 -0.1838 -0.0947
  799TIP3    H223957   4.483   2.014   1.367  0.0416  0.6467 -4.2557
  800TIP3   OH223958   1.082   1.683   1.139  0.0250  0.0560  0.2430
  800TIP3    H123959   1.059   1.724   1.223 -0.3001  1.2075 -0.3872
  800TIP3    H223960   1.147   1.742   1.101  0.7362 -0.8498  0.0010
  801TIP3   OH223961   0.168   6.397   1.805  0.4615 -0.5862  0.4678
  801TIP3    H123962   0.182   6.331   1.737  1.3171 -0.3210  0.3692
  801TIP3    H223963   0.249   6.396   1.856  0.0650 -0.3532  1.1116
  802TIP3   OH223964   4.245   6.324   7.802 -0.7931 -0.0239 -0.0518
  802TIP3    H123965   4.206   6.333   7.889  0.3342  0.8134  0.4000
  802TIP3    H223966   4.339   6.333   7.817 -0.5701  0.0397 -1.3484
  803TIP3   OH223967   6.644   3.281   0.303 -0.0401  0.4039  0.0746
  803TIP3    H123968   6.579   3.350   0.319  0.4126  0.3807  2.3901
  803TIP3    H223969   6.596   3.199   0.316  0.2810  0.3784  1.2039
  804TIP3   OH223970   4.507   6.381   0.531  0.4655 -0.5701  0.2440
  804TIP3    H123971   4.554   6.299   0.545  2.2387  0.3205 -0.2784
  804TIP3    H223972   4.481   6.379   0.439 -1.0923 -1.3011  0.6556
  805TIP3   OH223973   2.044   6.872   2.889 -0.2920  0.0991  0.3443
  805TIP3    H123974   1.961   6.824   2.885 -0.5066  0.3324  1.5961
  805TIP3    H223975   2.110   6.803   2.891 -0.5857 -0.1958  1.8152
  806TIP3   OH223976   0.752   6.647   0.036  0.2922 -0.5625 -0.1738
  806TIP3    H123977   0.787   6.716   0.092 -1.6878  3.2740 -3.1162
  806TIP3    H223978   0.799   6.657  -0.047 -1.1574 -1.7003 -1.1921
  807TIP3   OH223979   1.183   0.581   7.048 -0.2073  0.6410  0.2423
  807TIP3    H123980   1.093   0.612   7.036 -0.0763  0.6569 -0.7556
  807TIP3    H223981   1.229   0.607   6.968  0.6179  0.3776  0.6174
  808TIP3   OH223982   3.764   4.886   2.851 -0.8536  0.4857 -0.2313
  808TIP3    H123983   3.750   4.798   2.887  1.6526  0.2325  0.2496
  808TIP3    H223984   3.684   4.904   2.801 -1.6440 -1.8356  0.0847
  809TIP3   OH223985   0.964   4.784   7.609  0.5057  0.1129 -0.1899
  809TIP3    H123986   0.896   4.801   7.542  0.4211  0.1024 -0.1071
  809TIP3    H223987   1.021   4.719   7.569  1.2896  1.1566 -0.8313
  810TIP3   OH223988   1.219   0.077   0.819  0.2346  0.3698 -0.2431
  810TIP3    H123989   1.314   0.084   0.826  0.1554  2.0272 -0.4761
  810TIP3    H223990   1.186   0.139   0.884 -0.6666  1.0386 -1.3176
  811TIP3   OH223991   5.361   0.082   0.264  0.5395 -0.1719 -0.0097
  811TIP3    H123992   5.393  -0.006   0.248  1.5134  0.4501 -1.7524
  811TIP3    H223993   5.266   0.072   0.273  0.2862 -1.1177 -2.8581
  812TIP3   OH223994   5.359   6.158   7.224 -0.0646 -0.7858  0.0004
  812TIP3    H123995   5.326   6.132   7.138 -0.8020 -0.6578  0.2399
  812TIP3    H223996   5.442   6.203   7.205 -0.4834 -0.2835 -0.6951
  813TIP3   OH223997   4.292   5.224   1.188  0.0432 -0.2377 -0.7780
  813TIP3    H123998   4.234   5.155   1.221 -0.7166  1.1981  1.1667
  813TIP3    H223999   4.261   5.241   1.099 -1.4025 -0.7098 -0.3953
  814TIP3   OH224000   4.999   1.045   8.123  0.1753 -0.2169  0.0720
  814TIP3    H124001   5.005   1.140   8.123  0.5020 -0.2318  1.2793
  814TIP3    H224002   5.051   1.018   8.047  0.0569  0.5565 -0.2961
  815TIP3   OH224003   5.735   4.994   1.642 -0.3018  0.8989 -0.0769
  815TIP3    H124004   5.814   5.041   1.617  0.2681  0.9191  1.6133
  815TIP3    H224005   5.676   5.062   1.675 -1.3031  0.9640 -1.8885
  816TIP3   OH224006   1.479   2.658   2.340 -0.5894 -0.1221  0.7795
  816TIP3    H124007   1.462   2.714   2.415 -1.0214  0.8762 -0.0468
  816TIP3    H224008   1.392   2.631   2.310 -0.4050 -0.8632  0.8731
  817TIP3   OH224009   2.516   3.858   1.126 -0.6770  0.5410  0.6543
  817TIP3    H124010   2.611   3.859   1.136 -0.1385  1.3156 -3.0085
  817TIP3    H224011   2.482   3.894   1.208  2.2231  1.0470  1.7420
  818TIP3   OH224012   3.225   5.624   7.240  0.2133 -0.3255 -0.0803
  818TIP3    H124013   3.238   5.599   7.149 -1.7209 -2.1256  0.0474
  818TIP3    H224014   3.311   5.611   7.281  1.1542  0.6653 -1.6222
  819TIP3   OH224015   1.477   2.410   0.065  0.7234 -0.3326 -0.6799
  819TIP3    H124016   1.561   2.384   0.025  0.0897 -2.0258 -0.9848
  819TIP3    H224017   1.439   2.328   0.096 -1.8824  0.0410 -2.5876
  820TIP3   OH224018   4.538   5.889   7.401  0.3344 -0.1196 -0.5614
  820TIP3    H124019   4.570   5.891   7.311 -2.6660  1.3483 -1.7633
  820TIP3    H224020   4.573   5.969   7.441  0.5867 -0.0777 -0.8690
  821TIP3   OH224021   6.854   5.457   0.037 -0.3417 -0.6745  0.1237
  821TIP3    H124022   6.780   5.413   0.080  0.2388 -3.3261 -1.3422
  821TIP3    H224023   6.830   5.457  -0.056  0.4195  0.7268 -0.0912
  822TIP3   OH224024   5.342   6.312   2.538  0.3662  0.0612 -0.4066
  822TIP3    H124025   5.313   6.268   2.618  1.4764  0.0970  0.0285
  822TIP3    H224026   5.426   6.351   2.561  0.0863  1.1831 -1.2130
  823TIP3   OH224027   2.269   4.281   0.734  0.5565 -0.0631 -0.3668
  823TIP3    H124028   2.228   4.207   0.779  2.7266 -1.5205 -0.6643
  823TIP3    H224029   2.351   4.295   0.781  0.8058  1.2877 -1.1647
  824TIP3   OH224030   0.745   4.761   6.698 -0.4808  0.4186 -0.3974
  824TIP3    H124031   0.701   4.753   6.782  1.0766 -1.8957  0.3216
  824TIP3    H224032   0.689   4.714   6.636 -0.8144  0.6729 -0.2845
  825TIP3   OH224033   2.638   4.093   1.591  0.7659 -0.3157 -0.4666
  825TIP3    H124034   2.726   4.103   1.629  0.6354 -0.9079  0.0149
  825TIP3    H224035   2.591   4.038   1.654 -0.0836  0.3357 -0.5198
  826TIP3   OH224036   3.126   2.295   3.145 -0.3227 -0.3098  0.0069
  826TIP3    H124037   3.219   2.299   3.123 -0.4785 -1.8569 -1.1779
  826TIP3    H224038   3.112   2.367   3.206  1.6408 -0.0361  0.1992
  827TIP3   OH224039   5.645   4.875   2.025 -0.1222  0.5218  0.0310
  827TIP3    H124040   5.581   4.829   2.080  0.1402 -0.0858 -0.1584
  827TIP3    H224041   5.603   4.958   2.003 -1.0266 -0.0573 -0.4565
  828TIP3   OH224042   4.221   6.739   7.565 -0.0684  0.4192 -0.4112
  828TIP3    H124043   4.279   6.720   7.491 -1.7689 -1.5689 -1.3245
  828TIP3    H224044   4.173   6.817   7.537  0.4141  0.6136 -0.7190
  829TIP3   OH224045   4.005   4.703   1.479  0.3193 -0.4808 -0.2624
  829TIP3    H124046   3.978   4.747   1.560  0.5795  0.6129 -0.7519
  829TIP3    H224047   3.924   4.667   1.444 -0.0402  0.2631 -0.2309
  830TIP3   OH224048   0.645   1.187   0.166 -0.6623 -0.1172  0.4176
  830TIP3    H124049   0.653   1.165   0.259  1.1930  0.5498  0.4521
  830TIP3    H224050   0.587   1.120   0.130 -0.4015 -1.1118  1.7946
  831TIP3   OH224051   0.760   4.261   1.520  0.6613 -0.4052 -0.2864
  831TIP3    H124052   0.682   4.302   1.481 -0.1274 -1.1930  0.4270
  831TIP3    H224053   0.833   4.314   1.488 -0.4565  3.6244  2.9553
  832TIP3   OH224054   3.007   6.289   1.376 -0.2844  0.1070  0.1088
  832TIP3    H124055   3.102   6.282   1.380 -0.1503  1.8828  1.5921
  832TIP3    H224056   2.987   6.369   1.425 -2.6010 -0.6828  0.5841
  833TIP3   OH224057   3.704   2.104   0.906  0.7048  0.3122  0.3694
  833TIP3    H124058   3.693   2.101   0.811 -1.1951 -0.9429  0.5490
  833TIP3    H224059   3.683   2.194   0.930  1.5577  0.7383 -0.4105
  834TIP3   OH224060   0.442   2.105   7.214 -0.0730 -0.4601 -0.3402
  834TIP3    H124061   0.418   2.197   7.226 -4.3280 -1.4432  0.4207
  834TIP3    H224062   0.431   2.066   7.301 -1.8160 -2.2233 -1.2551
  835TIP3   OH224063   4.360   0.396   0.245 -0.1835 -0.0200  0.1397
  835TIP3    H124064   4.308   0.347   0.181 -0.1943  0.0076  0.1273
  835TIP3    H224065   4.310   0.477   0.258  0.5415  0.6106 -0.8845
  836TIP3   OH224066   0.397   4.609   0.714 -0.1059 -0.1833 -0.3973
  836TIP3    H124067   0.361   4.529   0.676 -1.8734  0.9200 -1.1603
  836TIP3    H224068   0.471   4.579   0.767 -1.0545 -2.3828 -0.2054
  837TIP3   OH224069   0.842   5.006   1.787  0.1990  0.3464 -0.1381
  837TIP3    H124070   0.888   4.998   1.704  1.5554 -1.2348  0.7054
  837TIP3    H224071   0.778   4.934   1.786 -0.8049  1.2172 -0.3975
  838TIP3   OH224072   1.253   3.634   7.623 -0.2366 -0.0573  0.1279
  838TIP3    H124073   1.323   3.570   7.611 -0.9810 -0.6451 -1.4348
  838TIP3    H224074   1.273   3.703   7.559 -0.8498 -0.0385 -0.0514
  839TIP3   OH224075   4.842   0.804   8.539  0.0478 -0.7468  0.3340
  839TIP3    H124076   4.875   0.738   8.600  0.5968 -0.0276  0.8184
  839TIP3    H224077   4.900   0.796   8.463  0.7381 -0.1452  0.7936
  840TIP3   OH224078   2.347   2.495   8.277 -0.0043  0.6994 -0.1269
  840TIP3    H124079   2.333   2.435   8.349  0.3906  0.7813  0.0223
  840TIP3    H224080   2.286   2.467   8.209 -0.4755  0.7121  0.2937
  841TIP3   OH224081   2.146   4.786   1.366 -0.4303 -0.0098  0.3102
  841TIP3    H124082   2.140   4.700   1.323 -1.9255  0.4105 -0.4046
  841TIP3    H224083   2.097   4.775   1.447  0.0311 -0.0241  0.5931
  842TIP3   OH224084   4.310   2.251   7.428  0.4448  0.6015 -0.2504
  842TIP3    H124085   4.328   2.328   7.374  0.7170  0.9764  0.3703
  842TIP3    H224086   4.384   2.247   7.489  0.7521 -0.5072 -0.6726
  843TIP3   OH224087   4.473   6.271   0.901 -0.0106  0.2934  0.3246
  843TIP3    H124088   4.519   6.203   0.852  0.4438  0.0643  1.0568
  843TIP3    H224089   4.542   6.326   0.937 -0.1365 -1.1122  2.9938
  844TIP3   OH224090   2.122   4.083   0.860  0.4554 -0.1607 -0.5642
  844TIP3    H124091   2.064   4.012   0.835  1.5947 -0.8546 -1.3099
  844TIP3    H224092   2.165   4.052   0.940 -1.2700  0.9903  0.9146
  845TIP3   OH224093   5.119   1.283   6.931 -0.1446 -0.3452 -0.0016
  845TIP3    H124094   5.053   1.265   6.998  0.2866  0.2368  0.5957
  845TIP3    H224095   5.190   1.220   6.949  1.3050  1.6889  2.0055
  846TIP3   OH224096   3.180   2.813   2.236 -0.0958  0.0739 -0.1370
  846TIP3    H124097   3.104   2.862   2.205  0.2986 -0.2589 -1.7667
  846TIP3    H224098   3.172   2.728   2.192  1.0319 -0.0765 -0.0715
  847TIP3   OH224099   3.934   4.521   7.303 -0.2799  0.0124  0.3892
  847TIP3    H124100   3.854   4.511   7.251 -0.2163  0.8910  0.0977
  847TIP3    H224101   3.987   4.583   7.253  0.9032 -1.0972  0.2169
  848TIP3   OH224102   4.106   4.106   7.654 -0.3601  0.3554 -0.0828
  848TIP3    H124103   4.033   4.076   7.600  0.0889  3.0609 -2.4152
  848TIP3    H224104   4.102   4.051   7.732 -3.8367 -0.7210 -0.8493
  849TIP3   OH224105   3.170   4.503   0.769 -0.1433 -0.6672 -0.1366
  849TIP3    H124106   3.137   4.586   0.733 -0.8760 -1.0934 -0.4758
  849TIP3    H224107   3.187   4.522   0.862 -0.2966 -0.1316 -0.2161
  850TIP3   OH224108   1.460   4.612   0.803  0.0587  0.0438  0.3018
  850TIP3    H124109   1.530   4.562   0.843 -0.2667 -0.8644 -0.2284
  850TIP3    H224110   1.381   4.587   0.852  0.2259  1.8436  1.5825
  851TIP3   OH224111   6.469   5.760   3.392 -0.5545 -0.0766  0.1053
  851TIP3    H124112   6.503   5.678   3.429 -0.0722 -0.2147 -0.6354
  851TIP3    H224113   6.545   5.801   3.350 -0.8889  0.5453  0.1024
  852TIP3   OH224114   0.762   0.271   8.470 -0.5088  0.5925 -0.0862
  852TIP3    H124115   0.732   0.222   8.547  0.6358 -1.0279 -0.6227
  852TIP3    H224116   0.838   0.320   8.501  0.4324 -0.6682 -0.3305
  853TIP3   OH224117   3.070   0.520   2.995  0.2494  0.6559  0.1753
  853TIP3    H124118   3.072   0.430   2.964  0.0544  1.1087 -1.2074
  853TIP3    H224119   3.131   0.567   2.938  0.5538  1.3601  1.0487
  854TIP3   OH224120   4.014   1.931   1.387  0.2458 -0.2795 -0.3480
  854TIP3    H124121   3.979   1.957   1.473 -0.4340 -0.4577 -0.5638
  854TIP3    H224122   3.998   2.007   1.331  1.6971  0.2695 -0.0639
  855TIP3   OH224123   5.760   1.971   1.293  0.3896  0.2550  0.1924
  855TIP3    H124124   5.752   1.946   1.201  0.3306  0.0856  0.2436
  855TIP3    H224125   5.801   1.895   1.335 -1.3413 -0.4706  0.6662
  856TIP3   OH224126   1.278   3.431   8.198 -0.4666 -0.0464 -0.6342
  856TIP3    H124127   1.350   3.451   8.258 -0.1895  0.9530 -1.2652
  856TIP3    H224128   1.274   3.335   8.196 -1.9404 -0.1790  2.6422
  857TIP3   OH224129   0.550   1.867   6.670 -0.0350 -0.4803 -0.2177
  857TIP3    H124130   0.637   1.838   6.643  1.0940  0.9018  1.7001
  857TIP3    H224131   0.490   1.821   6.611  1.9333 -2.0424 -1.1201
  858TIP3   OH224132   5.900   0.137   7.770  0.0101 -0.1095 -0.5956
  858TIP3    H124133   5.986   0.102   7.746  0.1359 -0.3184  0.1453
  858TIP3    H224134   5.902   0.228   7.742  0.9450  0.2427  0.5674
  859TIP3   OH224135   0.368   2.735   1.833 -0.2999 -0.0913  0.2240
  859TIP3    H124136   0.282   2.774   1.847 -0.0300  0.3774  0.6513
  859TIP3    H224137   0.371   2.713   1.740 -0.8062  0.0642  0.1715
  860TIP3   OH224138   4.238   0.002   0.594  0.2800 -0.4000  0.1653
  860TIP3    H124139   4.235   0.048   0.678  1.6613 -0.7721  0.4411
  860TIP3    H224140   4.146  -0.011   0.571 -0.1334 -0.4399  1.7095
  861TIP3   OH224141   3.569   1.487   1.504 -0.0576  0.1991  0.3168
  861TIP3    H124142   3.542   1.403   1.466 -0.2976  0.7838 -0.8585
  861TIP3    H224143   3.576   1.470   1.598  1.5466 -1.5756 -0.0578
  862TIP3   OH224144   5.790   4.972   2.426  0.6024 -0.5041 -0.4925
  862TIP3    H124145   5.863   4.920   2.392  1.3875  0.5569 -0.4837
  862TIP3    H224146   5.785   4.947   2.518  2.7078  1.3050  0.1873
  863TIP3   OH224147   5.308   2.079   1.156 -0.4129 -0.1124 -0.2653
  863TIP3    H124148   5.298   2.075   1.251  1.5552  0.5693  0.0352
  863TIP3    H224149   5.392   2.123   1.143 -0.3760 -0.6682 -2.3203
  864TIP3   OH224150   0.525   4.621   8.163  0.4555  0.5144  0.1436
  864TIP3    H124151   0.553   4.552   8.103 -0.5061  0.0037  0.2535
  864TIP3    H224152   0.509   4.577   8.246 -0.9231  0.6921  0.0132
  865TIP3   OH224153   1.386   0.658   1.843 -0.1160 -0.2373  0.3053
  865TIP3    H124154   1.357   0.618   1.924 -1.1791  1.7629  0.9774
  865TIP3    H224155   1.363   0.751   1.852 -0.8595 -0.0429 -2.5185
  866TIP3   OH224156   1.333   0.061   1.509 -0.1204 -0.0344  0.5992
  866TIP3    H124157   1.294   0.135   1.556  2.3766  2.2809 -0.6696
  866TIP3    H224158   1.306   0.073   1.418 -0.7194 -1.4863  0.5565
  867TIP3   OH224159   1.860   1.373   0.651  0.4974 -0.0460  0.3363
  867TIP3    H124160   1.802   1.423   0.708  1.7727  3.1225 -0.8766
  867TIP3    H224161   1.931   1.344   0.708  0.1578  0.3002  0.9440
  868TIP3   OH224162   3.176   4.508   1.519  0.3920  0.4538  0.7205
  868TIP3    H124163   3.166   4.592   1.474 -0.6424  0.9994  1.9336
  868TIP3    H224164   3.167   4.528   1.612  1.2123 -0.8448  1.1119
  869TIP3   OH224165   4.381   2.774   1.048 -0.3779  0.0686 -0.5713
  869TIP3    H124166   4.327   2.781   1.127  0.5770  1.5688 -0.0056
  869TIP3    H224167   4.458   2.724   1.076 -0.0493  0.5842 -0.5251
  870TIP3   OH224168   1.974   1.120   0.023  0.1302  0.2077 -0.4703
  870TIP3    H124169   1.957   1.072  -0.058 -1.2283  0.9852 -0.6762
  870TIP3    H224170   1.913   1.194   0.020  1.6074  1.5107  0.2095
  871TIP3   OH224171   5.307   3.844   1.080 -0.2878 -0.3788  0.4910
  871TIP3    H124172   5.329   3.755   1.052  1.8066 -0.1564  1.2508
  871TIP3    H224173   5.340   3.849   1.170 -2.1477  0.5683  1.1749
  872TIP3   OH224174   3.149   3.676   8.209 -0.2683  0.2506  0.2606
  872TIP3    H124175   3.156   3.768   8.232 -0.3170  0.1992  0.4835
  872TIP3    H224176   3.234   3.654   8.170  0.3897 -0.0568  1.8165
  873TIP3   OH224177   4.015   4.360   7.615  0.3346 -0.3202 -0.9189
  873TIP3    H124178   4.013   4.335   7.522  1.7389 -1.0049 -0.7859
  873TIP3    H224179   4.052   4.284   7.659  1.7762  0.8261 -0.0881
  874TIP3   OH224180   2.057   3.520   2.903 -0.4785 -0.0088 -0.1244
  874TIP3    H124181   2.013   3.442   2.937  2.5244 -1.4843  0.7644
  874TIP3    H224182   2.046   3.515   2.808 -1.2311 -0.9314  0.0027
  875TIP3   OH224183   1.291   2.421   7.709 -0.5753  0.0218 -0.0986
  875TIP3    H124184   1.228   2.434   7.637 -0.4139 -2.3783 -0.7505
  875TIP3    H224185   1.305   2.326   7.712  1.1566  0.2724  1.6567
  876TIP3   OH224186   4.372   6.498   0.050  0.0081  0.1757 -0.0728
  876TIP3    H124187   4.283   6.460   0.052 -0.2749  0.7192 -1.2189
  876TIP3    H224188   4.363   6.575  -0.005  1.2220  0.1886 -0.2710
  877TIP3   OH224189   2.191   2.001   7.885 -0.3354  0.1348 -0.3031
  877TIP3    H124190   2.111   1.957   7.856 -1.0134  0.1218  1.4529
  877TIP3    H224191   2.165   2.092   7.898 -0.8876 -0.3774  2.9388
  878TIP3   OH224192   0.895   6.052   8.148 -0.3834 -0.0691  0.0916
  878TIP3    H124193   0.899   5.957   8.136  0.3119 -0.1372  0.8366
  878TIP3    H224194   0.891   6.065   8.243 -1.6925  0.6159 -0.0229
  879TIP3   OH224195   0.555   5.225   1.300  0.0442  0.3309  0.1345
  879TIP3    H124196   0.493   5.291   1.331  1.9734  1.3628  2.1045
  879TIP3    H224197   0.503   5.146   1.287 -1.8368  1.4467  0.5873
  880TIP3   OH224198   5.891   5.643   7.481 -0.3444 -0.1937 -0.1431
  880TIP3    H124199   5.821   5.640   7.415  0.2444  1.7394 -0.9238
  880TIP3    H224200   5.972   5.646   7.430  0.1402  0.9610  0.6602
  881TIP3   OH224201   2.602   6.075   2.915  0.2895  0.5900  0.6745
  881TIP3    H124202   2.588   5.984   2.887 -2.0577  0.7323  1.1825
  881TIP3    H224203   2.671   6.069   2.981  1.9655 -0.4509 -1.0637
  882TIP3   OH224204   4.455   0.408   2.500 -0.5281  0.5968  0.1067
  882TIP3    H124205   4.546   0.380   2.488 -0.0966  1.8450  0.3746
  882TIP3    H224206   4.432   0.375   2.587  0.2065  1.6209  0.7115
  883TIP3   OH224207   0.901   3.249   2.555 -0.2491 -0.5854 -0.3705
  883TIP3    H124208   0.962   3.216   2.489 -0.1552 -2.2419  0.4706
  883TIP3    H224209   0.822   3.197   2.541 -0.6353 -0.1183  0.0652
  884TIP3   OH224210   5.145   1.033   0.019  0.2052  0.6881  0.1042
  884TIP3    H124211   5.074   1.037   0.082 -1.4845  1.4487 -1.7233
  884TIP3    H224212   5.116   0.968  -0.045  1.8675 -0.0778  0.0848
  885TIP3   OH224213   0.931   1.941   7.019 -0.2329  0.5719 -0.2430
  885TIP3    H124214   0.865   1.981   7.075  0.2354  2.0703 -0.7168
  885TIP3    H224215   0.917   1.980   6.933  1.1700  0.8300 -0.3885
  886TIP3   OH224216   0.017   6.251   0.243 -0.2190  0.0267 -0.0144
  886TIP3    H124217   0.035   6.164   0.279 -0.6681  1.0386  2.9858
  886TIP3    H224218   0.047   6.311   0.311 -3.7645  2.0713 -0.0204
  887TIP3   OH224219   0.184   3.520   8.419 -0.5270 -0.0710 -0.0281
  887TIP3    H124220   0.225   3.436   8.400 -1.3361 -0.4223 -0.2238
  887TIP3    H224221   0.256   3.583   8.411  0.2736 -0.8142  0.8816
  888TIP3   OH224222   5.030   5.784   8.559  0.7672 -0.5437  0.2634
  888TIP3    H124223   5.069   5.697   8.564 -1.0449 -1.4220  0.0208
  888TIP3    H224224   5.042   5.811   8.468 -2.5667 -2.5689 -0.9646
  889TIP3   OH224225   5.098   0.322   2.128 -0.0674  0.6813 -0.0803
  889TIP3    H124226   5.123   0.390   2.066 -0.3767  1.0533  0.1987
  889TIP3    H224227   5.009   0.345   2.154 -0.4861 -0.3001 -0.6188
  890TIP3   OH224228   5.839   2.582   8.220 -0.1414  0.2990  0.0397
  890TIP3    H124229   5.803   2.665   8.252 -0.3276  0.2414 -0.0168
  890TIP3    H224230   5.891   2.549   8.293 -1.4315 -0.3620  0.7031
  891TIP3   OH224231   4.497   2.269   1.431  0.0850 -0.5983 -0.2630
  891TIP3    H124232   4.410   2.247   1.399  0.4284 -1.7764 -0.4450
  891TIP3    H224233   4.551   2.275   1.352 -0.1318  1.7056 -0.2832
  892TIP3   OH224234   5.884   5.549   1.009 -0.0645  0.3887 -0.1348
  892TIP3    H124235   5.944   5.564   1.083  1.6963 -1.2780 -1.1363
  892TIP3    H224236   5.831   5.629   1.005  0.1144  0.7521  2.5841
  893TIP3   OH224237   1.173   5.195   0.361  0.8700 -0.1130  0.5109
  893TIP3    H124238   1.110   5.211   0.290  1.6853  2.0385  0.1963
  893TIP3    H224239   1.244   5.146   0.320  0.7682  0.0481  0.1391
  894TIP3   OH224240   6.436   1.747   6.282  0.0865 -0.0680  0.4845
  894TIP3    H124241   6.377   1.809   6.238 -0.0567 -0.6113 -0.0997
  894TIP3    H224242   6.498   1.721   6.214 -0.4759 -1.3480  0.4329
  895TIP3   OH224243   0.084   3.122   7.781 -0.3994  0.3644  0.2533
  895TIP3    H124244   0.082   3.193   7.845  2.2793  3.0490 -2.3024
  895TIP3    H224245   0.020   3.147   7.715 -1.8778 -1.4674  0.8993
  896TIP3   OH224246   4.115   5.621   0.123 -0.8588  0.6223 -0.6821
  896TIP3    H124247   4.120   5.571   0.204 -0.7511  1.9341  0.1490
  896TIP3    H224248   4.206   5.643   0.101 -0.9074  0.5125 -1.0009
  897TIP3   OH224249   2.513   4.233   2.069  0.6637 -0.0931 -0.3495
  897TIP3    H124250   2.571   4.229   1.993  1.1764  0.4790  0.0042
  897TIP3    H224251   2.571   4.229   2.145  0.1426 -0.8039  0.0250
  898TIP3   OH224252   3.628   6.276   0.463 -0.4431 -0.4540 -0.3421
  898TIP3    H124253   3.721   6.284   0.481 -0.1356 -0.9092 -1.5860
  898TIP3    H224254   3.606   6.187   0.492 -1.0292  0.3755  1.9864
  899TIP3   OH224255   0.849   3.426   0.405  0.1898 -0.4602  0.0448
  899TIP3    H124256   0.930   3.380   0.427  0.4587 -0.8121 -1.6010
  899TIP3    H224257   0.877   3.509   0.367 -0.2899  0.9713  2.5783
  900TIP3   OH224258   5.831   5.414   3.220  0.0406 -0.4885 -0.4705
  900TIP3    H124259   5.905   5.405   3.280 -0.9527 -2.0315  0.5986
  900TIP3    H224260   5.827   5.330   3.173 -1.9259 -1.0562  0.6065
  901TIP3   OH224261   5.627   6.276   7.767  0.1967 -0.3062 -0.2337
  901TIP3    H124262   5.549   6.267   7.713 -1.2704  0.5972  1.6328
  901TIP3    H224263   5.626   6.200   7.825 -2.1978  2.0477  3.1821
  902TIP3   OH224264   3.196   1.717   8.482 -0.3117  0.0675 -0.1021
  902TIP3    H124265   3.239   1.631   8.483 -3.2810 -1.6135  2.8228
  902TIP3    H224266   3.118   1.703   8.428 -0.8914  0.8594  0.5193
  903TIP3   OH224267   0.112   2.300   1.821 -0.5027 -0.2938 -0.5334
  903TIP3    H124268   0.175   2.298   1.749  0.2718 -1.0628  0.1525
  903TIP3    H224269   0.027   2.314   1.777 -0.2174 -1.9963 -1.7362
  904TIP3   OH224270   2.081   0.532   1.276  0.8114 -0.3504 -0.1743
  904TIP3    H124271   2.103   0.551   1.185 -1.3608 -0.2422 -0.7258
  904TIP3    H224272   2.002   0.583   1.293 -0.1956 -2.1894  1.0100
  905TIP3   OH224273   5.549   6.158   8.474  0.1303 -0.1535 -0.5099
  905TIP3    H124274   5.513   6.245   8.492  3.3935  1.1115  0.6459
  905TIP3    H224275   5.512   6.134   8.389 -2.5322  1.3427  0.1094
  906TIP3   OH224276   5.146   3.811   7.629 -0.8411  0.4485  0.1446
  906TIP3    H124277   5.096   3.776   7.702 -2.1845  0.6342 -0.6474
  906TIP3    H224278   5.188   3.735   7.590  0.7543  0.4774  1.7045
  907TIP3   OH224279   3.622   2.477   7.454 -0.0243 -0.4893  0.0360
  907TIP3    H124280   3.592   2.562   7.421 -1.4469 -0.8193  0.4141
  907TIP3    H224281   3.716   2.476   7.437  0.1514  1.4668  0.6632
  908TIP3   OH224282   5.384   1.122   1.505 -0.3877 -0.0955 -0.2805
  908TIP3    H124283   5.476   1.118   1.479 -0.7205  0.5044 -1.6283
  908TIP3    H224284   5.382   1.187   1.576  0.4290 -1.2583  0.8583
  909TIP3   OH224285   0.933   5.765   7.574 -0.0078  0.1482  0.2842
  909TIP3    H124286   0.935   5.708   7.651  0.3141  0.5817  0.6022
  909TIP3    H224287   0.893   5.711   7.505 -1.5956  0.2207  1.1092
  910TIP3   OH224288   1.778   3.298   0.423  0.1243 -0.0114 -0.5576
  910TIP3    H124289   1.857   3.336   0.461  0.8079 -0.2163 -1.7371
  910TIP3    H224290   1.783   3.320   0.330 -1.7010  0.8212 -0.5084
  911TIP3   OH224291   2.967   1.405   0.457  0.7066  0.0457 -0.5027
  911TIP3    H124292   2.901   1.424   0.391  0.2078 -1.7858 -0.5691
  911TIP3    H224293   2.943   1.460   0.532 -1.7481 -1.5709 -0.0005
  912TIP3   OH224294   4.628   0.680   7.826  0.3021  0.5024  0.6376
  912TIP3    H124295   4.681   0.701   7.903  1.2521 -0.0056  0.1516
  912TIP3    H224296   4.671   0.726   7.754  0.3967 -0.3150  0.1534
  913TIP3   OH224297   1.141   1.561   7.984  0.0411  0.0373  0.4925
  913TIP3    H124298   1.186   1.618   7.922 -4.8671 -0.2384 -4.1036
  913TIP3    H224299   1.099   1.620   8.046  2.0768  0.5729  1.4532
  914TIP3   OH224300   6.828   3.016   1.724 -0.0117 -0.1648 -0.1412
  914TIP3    H124301   6.832   3.082   1.794  2.2428  0.2926 -0.6390
  914TIP3    H224302   6.757   3.046   1.667 -0.3597  0.7128  0.7243
  915TIP3   OH224303   2.008   2.482   1.747 -0.4632 -0.1862  0.0834
  915TIP3    H124304   2.011   2.390   1.723 -0.1521 -0.6281  1.7188
  915TIP3    H224305   1.918   2.509   1.727 -0.5554 -0.8389 -0.3938
  916TIP3   OH224306   6.287   5.519   1.172 -0.3300  0.3590  0.2637
  916TIP3    H124307   6.353   5.589   1.169  0.9059 -0.7232 -3.5794
  916TIP3    H224308   6.204   5.565   1.161 -0.3418  1.6466  4.1422
  917TIP3   OH224309   6.275   4.705   1.662 -0.1363 -0.4366  0.2479
  917TIP3    H124310   6.210   4.686   1.595 -1.0496  0.6261  0.7793
  917TIP3    H224311   6.342   4.757   1.617 -0.7099  0.2165  0.1214
  918TIP3   OH224312   1.395   5.321   7.637 -0.3313 -0.1337  0.2850
  918TIP3    H124313   1.325   5.312   7.573  1.7957 -0.1383 -2.2249
  918TIP3    H224314   1.464   5.262   7.607  1.9357  2.0252  0.8548
  919TIP3   OH224315   2.169   4.141   7.759  0.4399 -0.6969 -0.1404
  919TIP3    H124316   2.169   4.204   7.831  0.6497 -1.2865  0.3852
  919TIP3    H224317   2.133   4.189   7.684 -0.8729 -0.4086  0.6446
  920TIP3   OH224318   1.204   4.432   0.025  0.1126 -0.2223 -1.4179
  920TIP3    H124319   1.114   4.448   0.053  0.0937  1.9221 -2.4514
  920TIP3    H224320   1.251   4.415   0.106 -0.7001  1.6333 -0.4850
  921TIP3   OH224321   4.516   3.476   0.744 -0.2119  0.0180 -0.4363
  921TIP3    H124322   4.528   3.546   0.808 -2.3418  0.0849 -0.0087
  921TIP3    H224323   4.432   3.435   0.768  0.4250 -1.9812 -1.3299
  922TIP3   OH224324   5.586   0.845   1.440  0.1679 -0.6322 -0.0066
  922TIP3    H124325   5.616   0.894   1.517 -0.7316  0.0877 -0.0849
  922TIP3    H224326   5.651   0.777   1.428  0.7310 -0.2904  0.9432
  923TIP3   OH224327   0.210   2.398   8.570 -0.3870 -0.1964  0.2854
  923TIP3    H124328   0.150   2.427   8.501  0.1709 -1.8278 -0.9518
  923TIP3    H224329   0.204   2.302   8.568  3.0231 -0.5052 -0.6390
  924TIP3   OH224330   1.100   0.969   1.556  0.2653 -0.1384 -0.2980
  924TIP3    H124331   1.095   1.064   1.555 -0.6501 -0.1589 -2.3842
  924TIP3    H224332   1.011   0.940   1.535  0.3049 -1.5094  1.1356
  925TIP3   OH224333   3.093   0.630   1.128 -0.6683 -0.2931  0.1599
  925TIP3    H124334   3.166   0.646   1.067 -1.2249 -1.4623 -0.8581
  925TIP3    H224335   3.015   0.656   1.079 -0.9951  0.5242  1.0819
  926TIP3   OH224336   5.858   4.772   1.332 -0.1588  0.0611  0.2090
  926TIP3    H124337   5.949   4.749   1.350 -0.0782  0.7376  0.7360
  926TIP3    H224338   5.855   4.788   1.238  0.0896 -0.6974  0.0661
  927TIP3   OH224339   2.986   1.064   0.949 -0.3974  1.1026  0.6814
  927TIP3    H124340   3.026   1.021   1.025  1.4330  0.0231 -0.8103
  927TIP3    H224341   2.974   1.155   0.977 -3.4766  0.0061  3.5839
  928TIP3   OH224342   4.620   5.214   6.786  0.4036  0.5155  0.4878
  928TIP3    H124343   4.644   5.131   6.825  0.7151  0.2665 -0.2112
  928TIP3    H224344   4.526   5.208   6.771  0.4346  0.2623  0.3931
  929TIP3   OH224345   0.610   6.448   0.477  0.8011 -0.0765  0.7765
  929TIP3    H124346   0.637   6.536   0.505  3.8158 -0.6836  0.1038
  929TIP3    H224347   0.597   6.456   0.383 -0.3988 -0.0528  0.9328
  930TIP3   OH224348   3.155   5.748   1.229  0.9512  0.0022 -0.5868
  930TIP3    H124349   3.152   5.709   1.141  0.6466 -0.8049 -0.2273
  930TIP3    H224350   3.204   5.685   1.282  1.5788  0.7290 -0.2884
  931TIP3   OH224351   6.191   1.666   0.717 -0.4645  0.3735 -0.7804
  931TIP3    H124352   6.188   1.634   0.808 -0.9865  0.6631 -0.6899
  931TIP3    H224353   6.128   1.738   0.715 -0.7703  0.0983 -1.4799
  932TIP3   OH224354   6.212   0.683   2.001  0.1394 -0.0758 -0.3193
  932TIP3    H124355   6.271   0.757   1.986 -0.3595  0.3981  0.0039
  932TIP3    H224356   6.134   0.703   1.949  0.0460 -0.4270 -0.3186
  933TIP3   OH224357   4.273   1.058   1.999  0.3794  0.2780  0.2172
  933TIP3    H124358   4.245   1.142   2.034  0.9786 -0.5212  2.8017
  933TIP3    H224359   4.245   0.994   2.064 -1.6033 -1.8173 -2.4399
  934TIP3   OH224360   6.653   5.956   0.506 -0.0874  0.3584  0.3025
  934TIP3    H124361   6.684   5.885   0.563 -0.8979  0.1796  0.5440
  934TIP3    H224362   6.732   5.998   0.474  0.4730 -1.5417 -0.9722
  935TIP3   OH224363   6.445   4.566   2.229 -0.3732 -0.1116 -0.1849
  935TIP3    H124364   6.433   4.490   2.172 -2.1177  0.4339 -0.6231
  935TIP3    H224365   6.372   4.561   2.291 -1.8724  2.2987 -1.5787
  936TIP3   OH224366   5.406   1.607   7.457  0.1358 -0.1733 -0.7729
  936TIP3    H124367   5.403   1.616   7.362  1.2474  0.4613 -0.7654
  936TIP3    H224368   5.466   1.535   7.472 -1.8717 -1.8958 -0.5815
  937TIP3   OH224369   2.365   1.149   1.666  0.1768  0.0119 -0.1965
  937TIP3    H124370   2.328   1.219   1.613 -0.5674 -1.0317 -1.0966
  937TIP3    H224371   2.443   1.188   1.706 -0.4104  1.4470 -0.3865
  938TIP3   OH224372   3.548   5.207   2.593  0.2336  0.0313 -0.2651
  938TIP3    H124373   3.612   5.229   2.660  0.4913  1.0126 -0.8207
  938TIP3    H224374   3.594   5.147   2.534  0.8743  1.2103 -1.0070
  939TIP3   OH224375   4.707   0.757   0.904  0.2305 -0.0101  0.2028
  939TIP3    H124376   4.625   0.803   0.886  0.7145  0.7155 -0.2012
  939TIP3    H224377   4.733   0.788   0.991  1.1343  1.4078 -0.5221
  940TIP3   OH224378   4.022   5.274   7.341 -0.9319 -0.0907  0.3200
  940TIP3    H124379   4.021   5.320   7.256 -0.8757 -1.3809 -0.3998
  940TIP3    H224380   4.073   5.332   7.398 -0.4344  0.5151 -0.6948
  941TIP3   OH224381   4.942   0.528   2.296  0.3571  0.2996  0.0163
  941TIP3    H124382   5.013   0.578   2.335  0.0354  0.6713  0.1354
  941TIP3    H224383   4.866   0.586   2.303 -0.2646 -0.6269  1.1321
  942TIP3   OH224384   4.585   6.098   0.719 -0.7678 -0.8033  0.1519
  942TIP3    H124385   4.579   6.012   0.678 -1.9271  0.2768 -2.0811
  942TIP3    H224386   4.679   6.118   0.720 -0.5347 -1.8474  0.2279
  943TIP3   OH224387   2.450   4.266   8.281 -0.6837  0.0937 -0.5116
  943TIP3    H124388   2.477   4.345   8.233 -0.6922 -0.2577 -1.1120
  943TIP3    H224389   2.394   4.299   8.351 -0.4086  0.6526 -0.5460
  944TIP3   OH224390   0.090   1.977   6.822  0.3871 -0.0327 -0.4888
  944TIP3    H124391   0.056   2.033   6.752 -1.9668  1.9485  2.0557
  944TIP3    H224392   0.165   2.024   6.856 -0.2949  0.5430  0.2472
  945TIP3   OH224393   6.858   3.905   0.577  0.5188  0.3556  0.3041
  945TIP3    H124394   6.935   3.912   0.520 -0.6237  1.1429 -1.2298
  945TIP3    H224395   6.852   3.812   0.599  1.4132  0.1529 -0.2684
  946TIP3   OH224396   6.245   3.012   0.378 -0.2689 -0.0166 -0.2846
  946TIP3    H124397   6.277   3.101   0.391 -1.8004  0.3705  1.3517
  946TIP3    H224398   6.227   3.005   0.284 -0.1337  1.3983 -0.4288
  947TIP3   OH224399   6.843   1.870   8.184  0.5436 -0.0067 -0.2390
  947TIP3    H124400   6.764   1.895   8.136  0.3473  0.6235  0.3969
  947TIP3    H224401   6.891   1.952   8.196  0.5747 -0.1470  0.6557
  948TIP3   OH224402   1.726   1.215   1.632 -0.1468  0.2913 -0.0943
  948TIP3    H124403   1.748   1.217   1.539  0.8300 -1.0251  0.0927
  948TIP3    H224404   1.746   1.126   1.660 -0.1160  0.7568  1.4612
  949TIP3   OH224405   2.697   4.277   0.147 -0.0308 -0.5802  0.0145
  949TIP3    H124406   2.726   4.308   0.062  2.5860 -3.5937 -0.3418
  949TIP3    H224407   2.770   4.295   0.206 -0.7876 -0.8262  1.0615
  950TIP3   OH224408   4.529   2.152   7.872 -0.1902 -0.6943 -0.5551
  950TIP3    H124409   4.566   2.083   7.926 -0.0813 -0.2774 -0.0934
  950TIP3    H224410   4.579   2.230   7.894 -1.1273 -0.1894 -0.1427
  951TIP3   OH224411   3.059   0.124   0.532 -0.0068 -0.0575 -0.2041
  951TIP3    H124412   2.969   0.093   0.543  0.1060 -0.0421  0.9424
  951TIP3    H224413   3.073   0.126   0.437 -0.9474 -0.8195 -0.3751
  952TIP3   OH224414   4.120   0.714   7.332  0.0445  0.0492  0.2327
  952TIP3    H124415   4.082   0.778   7.272  0.0884  0.6077  0.7880
  952TIP3    H224416   4.101   0.749   7.419  0.7525 -0.2901  0.5313
  953TIP3   OH224417   3.925   1.499   2.579 -0.0797  0.3093  0.1344
  953TIP3    H124418   3.975   1.420   2.597 -0.5042  0.3639  1.6583
  953TIP3    H224419   3.941   1.555   2.655 -2.2340  0.4365  0.5463
  954TIP3   OH224420   2.000   5.268   7.619 -0.6180 -0.1733  0.1368
  954TIP3    H124421   1.985   5.314   7.537  2.2497  0.3230 -0.1801
  954TIP3    H224422   1.994   5.175   7.596  1.3142 -0.0663 -0.9264
  955TIP3   OH224423   2.799   2.041   7.977  0.1604 -0.0779  0.5482
  955TIP3    H124424   2.814   2.134   7.998  2.1311 -0.4226  0.8189
  955TIP3    H224425   2.885   2.008   7.953 -0.4767 -1.9162  0.6843
  956TIP3   OH224426   6.591   0.387   1.682  0.7371  0.4230  0.0522
  956TIP3    H124427   6.581   0.331   1.759 -0.7313 -0.8784 -1.0284
  956TIP3    H224428   6.504   0.423   1.667  1.4870  2.4846  0.2800
  957TIP3   OH224429   6.694   0.165   1.518 -0.0641  0.1268 -0.3167
  957TIP3    H124430   6.685   0.250   1.560 -1.8220 -0.8554  1.5108
  957TIP3    H224431   6.607   0.147   1.481 -0.5184 -1.8598  1.5076
  958TIP3   OH224432   5.716   6.849   2.762  0.4081  0.1957  0.0915
  958TIP3    H124433   5.642   6.804   2.721  0.6586  0.5090 -0.7225
  958TIP3    H224434   5.744   6.913   2.697  0.1180  1.4934  1.1873
  959TIP3   OH224435   0.389   2.811   0.926  0.4618 -0.2829  0.3357
  959TIP3    H124436   0.341   2.733   0.955 -0.9320  0.6744  0.7163
  959TIP3    H224437   0.365   2.821   0.834  0.0170  0.1224  0.4912
  960TIP3   OH224438   1.747   3.644   1.284  0.1606 -0.3645 -0.7275
  960TIP3    H124439   1.774   3.575   1.223  0.9361 -1.4067  0.7306
  960TIP3    H224440   1.808   3.636   1.357 -2.5313 -1.1993  1.6052
  961TIP3   OH224441   3.656   0.070   8.084 -0.3806 -0.3062  0.4459
  961TIP3    H124442   3.740   0.108   8.111 -0.9724  1.5215 -0.1131
  961TIP3    H224443   3.679   0.000   8.023  0.7317  0.6285 -0.2350
  962TIP3   OH224444   0.572   3.416   0.461 -0.4736 -0.2488  0.2631
  962TIP3    H124445   0.541   3.422   0.370  0.3066  0.0774  0.0088
  962TIP3    H224446   0.667   3.414   0.453 -0.4043 -0.2057  1.0789
  963TIP3   OH224447   6.295   4.462   7.409 -0.3718  0.8589  0.0802
  963TIP3    H124448   6.326   4.397   7.345 -0.5825  0.5205  0.3140
  963TIP3    H224449   6.259   4.533   7.356 -1.5976  0.0707 -0.1922
  964TIP3   OH224450   2.896   2.033   8.404 -0.2300 -0.2513  0.7194
  964TIP3    H124451   2.847   2.078   8.473 -0.4200  0.5846  0.0584
  964TIP3    H224452   2.831   2.014   8.336  0.2618  0.5715 -0.0163
  965TIP3   OH224453   5.631   2.475   0.818 -0.0980 -0.0988 -0.1256
  965TIP3    H124454   5.658   2.469   0.726 -0.1266  0.5850 -0.1830
  965TIP3    H224455   5.694   2.536   0.857  0.9178 -1.6001  0.7039
  966TIP3   OH224456   2.404   0.088   8.456 -0.5006 -0.4027 -0.4018
  966TIP3    H124457   2.326   0.034   8.468 -0.3870 -0.2236  1.3464
  966TIP3    H224458   2.409   0.102   8.362 -2.9914  0.2082 -0.4893
  967TIP3   OH224459   3.087   2.272   1.904  0.0904  0.4053  0.0000
  967TIP3    H124460   3.118   2.316   1.824 -0.7220 -0.0988 -0.6142
  967TIP3    H224461   3.018   2.214   1.873 -0.8605  0.8601  1.1991
  968TIP3   OH224462   2.691   2.188   2.041  0.0939  0.2077 -0.6867
  968TIP3    H124463   2.758   2.169   2.107  0.0638  1.1206 -0.3764
  968TIP3    H224464   2.663   2.102   2.010  0.9328 -0.2008 -0.3390
  969TIP3   OH224465   5.170   0.488   0.202 -0.0538  0.1448 -0.3611
  969TIP3    H124466   5.211   0.574   0.192  0.8069 -0.0935  0.8834
  969TIP3    H224467   5.182   0.446   0.117  1.9097  0.2654 -0.1895
  970TIP3   OH224468   0.066   6.685   1.193  0.2151 -0.2589 -0.0017
  970TIP3    H124469   0.150   6.689   1.148  0.2980 -0.8317  0.0903
  970TIP3    H224470   0.062   6.596   1.228  0.7568  0.5549  2.2933
  971TIP3   OH224471   0.113   3.165   0.734 -0.1438  0.3722 -0.4709
  971TIP3    H124472   0.024   3.166   0.769 -0.2258  1.6743 -0.6795
  971TIP3    H224473   0.165   3.216   0.796  0.3913 -0.0811 -0.5326
  972TIP3   OH224474   0.013   6.444   2.370  0.5885  0.6036 -0.3441
  972TIP3    H124475   0.018   6.365   2.423 -1.8256 -0.0158 -0.9483
  972TIP3    H224476   0.104   6.462   2.345  1.4541 -0.6533  1.6569
  973TIP3   OH224477   4.918   3.758   2.500  0.1568  0.0719 -0.3054
  973TIP3    H124478   4.969   3.795   2.427 -0.0224  0.8488 -0.0486
  973TIP3    H224479   4.888   3.673   2.468  0.2768  0.3034 -1.0548
  974TIP3   OH224480   3.624   0.418   6.991  0.3898  0.9850  0.5906
  974TIP3    H124481   3.573   0.497   6.970  1.1964  1.8635  1.7944
  974TIP3    H224482   3.686   0.447   7.058  1.3162 -0.4742  0.3984
  975TIP3   OH224483   1.257   4.449   0.916  0.1565 -0.3935  0.1879
  975TIP3    H124484   1.183   4.498   0.952  0.1160 -1.3636  1.5195
  975TIP3    H224485   1.222   4.409   0.837  0.0420  1.2588 -0.6374
  976TIP3   OH224486   2.766   1.933   1.949  0.0849  0.3383  0.2174
  976TIP3    H124487   2.702   1.883   1.898 -0.4184  0.6410  0.5481
  976TIP3    H224488   2.769   1.888   2.033 -0.7351  1.1361  0.6927
  977TIP3   OH224489   4.084   0.322   2.147 -0.4799  0.3201  0.1930
  977TIP3    H124490   4.109   0.231   2.163 -2.7414 -0.0564  2.1674
  977TIP3    H224491   4.164   0.372   2.167  0.6123 -1.1417 -0.3020
  978TIP3   OH224492   0.207   0.625   0.633 -0.3790 -0.5499 -0.0080
  978TIP3    H124493   0.141   0.590   0.692 -0.8911  0.4361  0.0184
  978TIP3    H224494   0.259   0.684   0.687  1.0278 -1.8714  0.1577
  979TIP3   OH224495   2.942   2.144   2.217  0.1760 -0.2190  0.6872
  979TIP3    H124496   2.940   2.054   2.185  0.7108 -0.4793  1.3718
  979TIP3    H224497   2.923   2.138   2.310 -0.5274  0.4563  0.6029
  980TIP3   OH224498   4.340   1.374   2.099 -0.0733 -0.4322  0.1954
  980TIP3    H124499   4.359   1.465   2.122  1.6605 -0.7649  0.2702
  980TIP3    H224500   4.385   1.323   2.167  0.7669 -1.3490 -1.0144
  981TIP3   OH224501   3.205   3.682   0.556  0.0705  0.1111  0.3998
  981TIP3    H124502   3.231   3.772   0.573 -2.0939  1.0485 -0.7834
  981TIP3    H224503   3.110   3.683   0.562 -0.0332 -2.0101 -0.0485
  982TIP3   OH224504   4.501   0.011   2.183  0.2227  0.3571 -0.6143
  982TIP3    H124505   4.454   0.052   2.255 -0.7952 -2.0714  0.2140
  982TIP3    H224506   4.594   0.025   2.203 -0.0466  2.5775 -0.6665
  983TIP3   OH224507   2.258   6.437   7.977 -0.1371  0.0845 -0.0909
  983TIP3    H124508   2.222   6.519   7.944  0.0487  0.1559 -0.1108
  983TIP3    H224509   2.352   6.444   7.964 -0.1974 -0.4752 -0.8581
  984TIP3   OH224510   2.027   2.665   2.664 -0.1532  0.3349 -0.1100
  984TIP3    H124511   2.121   2.667   2.681 -0.1327  0.2172 -0.2030
  984TIP3    H224512   2.001   2.575   2.686  0.3655 -0.6877 -3.2139
  985TIP3   OH224513   3.137   3.460   1.024  0.1261 -0.6411  0.2397
  985TIP3    H124514   3.185   3.401   0.966 -0.7943 -2.3917  1.1807
  985TIP3    H224515   3.077   3.507   0.966  1.2373 -0.2111 -0.5988
  986TIP3   OH224516   1.286   1.753   2.860  0.6539  0.3773 -0.3181
  986TIP3    H124517   1.270   1.660   2.877 -2.2499  1.2105  2.4854
  986TIP3    H224518   1.212   1.781   2.806 -0.1498  1.5603  1.2932
  987TIP3   OH224519   1.334   4.486   8.392 -0.3655 -0.3226  0.3941
  987TIP3    H124520   1.297   4.472   8.479 -0.6575  0.3113  0.3712
  987TIP3    H224521   1.342   4.581   8.383 -0.2344 -0.3863 -0.2271
  988TIP3   OH224522   2.038   1.849   0.521 -0.4711  0.1036 -0.3447
  988TIP3    H124523   2.099   1.777   0.505  0.3723  0.7848 -0.2732
  988TIP3    H224524   2.034   1.856   0.616 -3.0381 -1.8895 -0.1947
  989TIP3   OH224525   3.816   3.681   1.016 -0.1551 -0.5612  0.0034
  989TIP3    H124526   3.780   3.685   1.105  0.3110  0.9843  0.1458
  989TIP3    H224527   3.748   3.720   0.961  0.5602  0.7851  0.0401
  990TIP3   OH224528   3.868   3.259   7.839  0.0272  0.1347 -0.5646
  990TIP3    H124529   3.962   3.251   7.822 -0.0063 -0.5401 -0.4447
  990TIP3    H224530   3.831   3.175   7.812 -0.6459  0.6301 -1.2366
  991TIP3   OH224531   6.910   1.603   7.358  0.2415  0.0217 -0.2799
  991TIP3    H124532   6.917   1.694   7.385  1.0687  0.0283 -0.5093
  991TIP3    H224533   6.824   1.575   7.390  0.1239  0.7820  0.0771
  992TIP3   OH224534   1.078   5.319   7.788  0.1149  0.0949 -0.1609
  992TIP3    H124535   1.075   5.298   7.694 -1.0162  0.4253 -0.2135
  992TIP3    H224536   0.993   5.291   7.821 -0.7075  2.7481  0.1550
  993TIP3   OH224537   5.335   5.411   0.400 -0.0565 -0.1538 -0.5129
  993TIP3    H124538   5.324   5.506   0.407  0.0745 -0.1067 -0.9104
  993TIP3    H224539   5.411   5.391   0.454  1.5357  0.3280 -2.4418
  994TIP3   OH224540   5.500   4.860   1.649 -0.6108 -0.0926 -0.4106
  994TIP3    H124541   5.499   4.884   1.556  1.3629 -2.0519 -1.0520
  994TIP3    H224542   5.591   4.871   1.675 -1.2032  0.7503  1.4235
  995TIP3   OH224543   0.443   3.813   7.908 -0.2399 -0.0705  0.1444
  995TIP3    H124544   0.438   3.794   8.001 -0.4595  0.7592  0.3124
  995TIP3    H224545   0.382   3.751   7.867 -0.2106 -0.3744  0.5600
  996TIP3   OH224546   0.571   2.149   7.938  0.3081 -0.2021 -0.5324
  996TIP3    H124547   0.665   2.168   7.942 -0.1047  1.7969  2.0179
  996TIP3    H224548   0.563   2.064   7.980  0.8725  0.3282  0.7196
  997TIP3   OH224549   3.157   4.129   0.489 -0.1499  0.5894 -0.1693
  997TIP3    H124550   3.175   4.083   0.571  0.2654 -1.0114 -1.1059
  997TIP3    H224551   3.199   4.214   0.500  0.5895  0.1067  0.9941
  998TIP3   OH224552   1.885   0.982   6.823  0.3638  0.0566 -0.1959
  998TIP3    H124553   1.861   1.068   6.857 -0.3241 -0.4690  0.6721
  998TIP3    H224554   1.880   0.992   6.728  3.6519  1.9266 -0.3413
  999TIP3   OH224555   1.651   5.175   1.787  0.0024  0.4575 -0.5296
  999TIP3    H124556   1.727   5.117   1.788 -0.0107  0.3200  2.4084
  999TIP3    H224557   1.687   5.263   1.798 -0.1967  0.4561  0.2088
 1000TIP3   OH224558   0.078   1.426   1.977 -0.4641 -0.0325  0.3588
 1000TIP3    H124559   0.044   1.512   1.951  2.8043  1.7459  1.4506
 1000TIP3    H224560   0.082   1.377   1.896 -0.7482  1.5062 -0.6364
 1001TIP3   OH224561   4.313   0.510   1.745 -0.3533 -0.6475 -0.1912
 1001TIP3    H124562   4.394   0.560   1.761 -0.1023 -0.7926 -0.9996
 1001TIP3    H224563   4.274   0.501   1.832  0.1164  0.0770  0.1086
 1002TIP3   OH224564   5.646   4.584   1.291 -0.3177  0.0742 -0.3191
 1002TIP3    H124565   5.626   4.571   1.384  0.0549 -1.1730 -0.3911
 1002TIP3    H224566   5.707   4.658   1.289 -0.7236  0.4343  0.3727
 1003TIP3   OH224567   1.197   1.816   8.561 -1.0317  0.2483 -0.2753
 1003TIP3    H124568   1.259   1.826   8.633 -0.1317  1.2622 -1.1600
 1003TIP3    H224569   1.122   1.772   8.601 -0.9134  1.5020  1.4923
 1004TIP3   OH224570   1.284   3.278   6.835 -0.3374  0.2511 -0.0327
 1004TIP3    H124571   1.370   3.320   6.849  0.2583 -1.5562  2.4765
 1004TIP3    H224572   1.231   3.310   6.908 -1.2819  0.0103 -0.6032
 1005TIP3   OH224573   2.889   4.939   7.709  0.2069  0.2880 -0.1107
 1005TIP3    H124574   2.841   4.994   7.771  0.0369 -2.4668  2.3897
 1005TIP3    H224575   2.845   4.854   7.712  1.6315 -0.6330 -2.3162
 1006TIP3   OH224576   4.111   6.703   8.158 -0.1011  1.0113 -0.0860
 1006TIP3    H124577   4.176   6.664   8.217 -0.7123 -0.8628 -0.5670
 1006TIP3    H224578   4.029   6.659   8.180 -1.0387  2.6316 -0.1592
 1007TIP3   OH224579   1.895   3.215   1.228 -0.6351  0.3089 -0.2968
 1007TIP3    H124580   1.986   3.223   1.256  0.2771 -1.4938 -2.4009
 1007TIP3    H224581   1.885   3.280   1.159 -0.2075 -0.9089 -1.5660
 1008TIP3   OH224582   6.842   1.967   6.433 -0.4065 -0.0871 -0.2503
 1008TIP3    H124583   6.912   1.901   6.427  0.8610  1.1576  0.1585
 1008TIP3    H224584   6.840   2.008   6.346 -0.0730  0.3960 -0.0377
 1009TIP3   OH224585   6.778   4.218   8.534 -0.2523  0.5409  0.5608
 1009TIP3    H124586   6.800   4.227   8.627 -0.0437 -1.2063  0.7163
 1009TIP3    H224587   6.839   4.152   8.501 -1.2505  0.0952 -0.4696
 1010TIP3   OH224588   2.327   0.007   0.276  0.4115  0.4672 -0.1178
 1010TIP3    H124589   2.373  -0.026   0.198 -1.2847 -0.5915 -0.7062
 1010TIP3    H224590   2.235   0.012   0.250 -0.4591 -1.3475  2.2594
 1011TIP3   OH224591   6.443   6.396   3.150 -0.5955  0.2460  0.3872
 1011TIP3    H124592   6.417   6.330   3.214  0.2468  0.5047  1.0255
 1011TIP3    H224593   6.511   6.354   3.098 -1.9913 -0.3117 -1.0443
 1012TIP3   OH224594   1.109   4.263   1.501 -0.3235  0.1511 -0.5752
 1012TIP3    H124595   1.101   4.342   1.448  2.3043  0.8890 -0.0193
 1012TIP3    H224596   1.201   4.237   1.492 -0.3802 -1.0874  1.6636
 1013TIP3   OH224597   1.566   6.632   0.131  0.3507 -0.2837  0.9196
 1013TIP3    H124598   1.595   6.682   0.208 -2.4625  0.1096  1.8320
 1013TIP3    H224599   1.473   6.616   0.147 -0.1335 -0.9096 -2.0571
 1014TIP3   OH224600   6.821   2.828   0.361 -0.1444 -0.3132  0.6617
 1014TIP3    H124601   6.836   2.893   0.429 -0.7278 -0.3262  0.8042
 1014TIP3    H224602   6.781   2.754   0.407 -0.6831 -0.2626  0.2832
 1015TIP3   OH224603   4.989   5.831   2.107 -0.3444  0.2149 -0.5538
 1015TIP3    H124604   4.916   5.786   2.065 -0.3915  0.9233 -1.2381
 1015TIP3    H224605   4.950   5.909   2.146  0.0975  0.7978 -1.2492
 1016TIP3   OH224606   0.280   6.688   2.353 -0.0012  0.1759 -0.2322
 1016TIP3    H124607   0.373   6.709   2.344  0.0780 -0.5263 -1.1882
 1016TIP3    H224608   0.270   6.659   2.444  0.2686  2.3485  0.5553
 1017TIP3   OH224609   3.300   4.180   7.836 -0.3147  0.3449  0.2538
 1017TIP3    H124610   3.337   4.175   7.748 -0.5537  0.4662  0.1470
 1017TIP3    H224611   3.211   4.213   7.823 -0.1944  0.8060  0.5803
 1018TIP3   OH224612   0.063   6.787   2.194 -0.1291 -0.3062 -0.3870
 1018TIP3    H124613   0.078   6.873   2.156 -1.9232 -0.8505 -2.5161
 1018TIP3    H224614   0.147   6.763   2.234  1.0995  1.4036 -1.8009
 1019TIP3   OH224615   5.057   2.519   1.787  0.0795  0.4212 -0.0166
 1019TIP3    H124616   4.996   2.565   1.730 -0.9855 -0.6529  0.2248
 1019TIP3    H224617   5.054   2.428   1.758  2.2972  0.4666 -0.6260
 1020TIP3   OH224618   5.860   3.790   7.909 -0.0646  0.3010 -0.3791
 1020TIP3    H124619   5.912   3.864   7.878  0.8134 -0.7459 -1.5037
 1020TIP3    H224620   5.904   3.762   7.990 -1.2523  1.8617  0.8755
 1021TIP3   OH224621   0.073   2.821   0.719  0.4223 -0.2865 -0.0039
 1021TIP3    H124622   0.039   2.731   0.721 -0.1892 -0.0541  1.4305
 1021TIP3    H224623   0.127   2.824   0.640  0.0936 -1.7814 -0.3277
 1022TIP3   OH224624   1.664   1.460   8.349 -0.0278 -0.2143  0.5248
 1022TIP3    H124625   1.594   1.396   8.362  1.1504 -1.8547 -0.8058
 1022TIP3    H224626   1.654   1.521   8.422 -2.3451 -0.8384  0.8006
 1023TIP3   OH224627   2.124   4.924   7.462 -0.5538 -0.2943 -0.2490
 1023TIP3    H124628   2.077   4.969   7.391 -0.4162 -1.3387 -1.0173
 1023TIP3    H224629   2.167   4.850   7.420  0.2091 -0.4720  0.7912
 1024TIP3   OH224630   6.302   0.733   8.373 -0.4746  0.2489 -0.0402
 1024TIP3    H124631   6.394   0.716   8.352 -0.3927  1.4342 -0.7008
 1024TIP3    H224632   6.297   0.720   8.468  0.4863  0.6552  0.0796
 1025TIP3   OH224633   3.867   1.173   1.839 -0.3596 -0.4792 -0.1877
 1025TIP3    H124634   3.773   1.191   1.846 -0.4345 -0.8374 -0.2197
 1025TIP3    H224635   3.894   1.216   1.758 -0.2257  0.6961  0.4515
 1026TIP3   OH224636   6.482   6.663   8.227 -0.2631 -0.4465  0.1740
 1026TIP3    H124637   6.533   6.725   8.174  0.7307 -1.7666 -0.4886
 1026TIP3    H224638   6.392   6.695   8.221  0.0135  0.1559 -1.2985
 1027TIP3   OH224639   1.672   1.686   0.535  0.0032 -0.5097 -0.3183
 1027TIP3    H124640   1.732   1.745   0.490 -0.9188  0.7045 -0.0261
 1027TIP3    H224641   1.715   1.666   0.618  0.2794 -0.1355 -0.3696
 1028TIP3   OH224642   0.804   0.879   1.735 -0.0485  0.8199 -0.1404
 1028TIP3    H124643   0.750   0.891   1.814  0.1635  0.2405  0.0986
 1028TIP3    H224644   0.863   0.808   1.758 -1.5051 -0.9506 -1.6322
 1029TIP3   OH224645   2.297   5.508   1.042 -0.7653 -0.5543 -0.3458
 1029TIP3    H124646   2.297   5.412   1.043 -2.2612 -0.5689  0.7873
 1029TIP3    H224647   2.206   5.532   1.025 -0.9499  0.6464  1.9725
 1030TIP3   OH224648   2.090   5.319   7.061 -0.6467  0.3412 -0.9896
 1030TIP3    H124649   2.040   5.240   7.041 -0.3267  0.1606 -1.0698
 1030TIP3    H224650   2.057   5.384   6.999 -0.1664 -0.0191 -1.6371
 1031TIP3   OH224651   2.412   3.371   8.580  0.0719 -0.3621  0.3932
 1031TIP3    H124652   2.386   3.280   8.593  2.0664 -0.6673  3.3637
 1031TIP3    H224653   2.383   3.416   8.660  0.5004  1.2641 -0.3217
 1032TIP3   OH224654   4.546   4.724   2.756 -0.4070  0.2934 -0.7592
 1032TIP3    H124655   4.457   4.748   2.782  0.0420 -0.0821  1.3499
 1032TIP3    H224656   4.534   4.665   2.682 -1.8940  0.4874 -0.7063
 1033TIP3   OH224657   3.988   6.909   7.843 -1.0441 -0.0392  0.0035
 1033TIP3    H124658   3.896   6.894   7.824 -0.9793 -0.2722 -0.1237
 1033TIP3    H224659   3.988   6.968   7.918 -1.3021  0.4803 -0.3974
 1034TIP3   OH224660   0.408   5.122   7.547  0.3867  0.2299 -0.1828
 1034TIP3    H124661   0.376   5.208   7.574 -0.1256  0.7796 -2.3261
 1034TIP3    H224662   0.503   5.132   7.540  0.2464  0.9799 -1.3989
 1035TIP3   OH224663   4.189   3.871   7.400  0.1288 -0.8130 -0.5085
 1035TIP3    H124664   4.094   3.861   7.399  0.1319 -0.8269 -1.0412
 1035TIP3    H224665   4.219   3.816   7.472 -0.2211 -1.2379 -0.6865
 1036TIP3   OH224666   4.183   5.425   2.699 -0.4146 -0.4241  0.1113
 1036TIP3    H124667   4.108   5.401   2.645 -0.4258  0.0807 -0.0943
 1036TIP3    H224668   4.257   5.424   2.639 -0.6131  1.3519 -0.2070
 1037TIP3   OH224669   3.787   4.426   7.737  0.1065 -0.2631 -0.2786
 1037TIP3    H124670   3.869   4.412   7.689  0.4272  0.0089  0.1809
 1037TIP3    H224671   3.719   4.426   7.669  0.5090 -0.2914 -0.6852
 1038TIP3   OH224672   3.898   1.700   0.992 -0.4384 -0.3881  0.5130
 1038TIP3    H124673   3.810   1.738   1.003 -0.2057  0.3519 -0.0317
 1038TIP3    H224674   3.906   1.688   0.897  0.7846  1.4328  0.3401
 1039TIP3   OH224675   2.317   1.338   7.560 -0.1717  0.3603 -0.3320
 1039TIP3    H124676   2.292   1.303   7.474  0.5212  1.7411 -1.1176
 1039TIP3    H224677   2.412   1.325   7.564 -0.2602 -0.0986  0.4285
 1040TIP3   OH224678   2.236   2.181   0.795  0.0593  0.2253 -0.4324
 1040TIP3    H124679   2.202   2.222   0.715  0.3184  0.0381 -0.6422
 1040TIP3    H224680   2.298   2.116   0.763 -1.6660 -1.6270 -0.1970
 1041TIP3   OH224681   4.722   3.391   7.406  0.0008  0.1597 -0.0164
 1041TIP3    H124682   4.781   3.415   7.335  0.4728 -1.1708 -0.1148
 1041TIP3    H224683   4.763   3.429   7.485 -0.3910  1.4197 -0.4082
 1042TIP3   OH224684   6.061   1.657   7.995  0.0008 -0.2388 -0.5176
 1042TIP3    H124685   6.049   1.590   7.928  1.9186  0.0320 -1.1894
 1042TIP3    H224686   6.141   1.632   8.041  0.9826  1.7137 -1.0201
 1043TIP3   OH224687   3.255   0.954   7.919 -0.1878  0.1818  0.0725
 1043TIP3    H124688   3.322   1.023   7.927 -0.3266  0.2852  0.3835
 1043TIP3    H224689   3.209   0.975   7.838 -1.6016  1.7012  1.1900
 1044TIP3   OH224690   2.662   1.196   0.468 -0.9645  0.2706  0.3059
 1044TIP3    H124691   2.619   1.252   0.532  0.3212  1.1435  0.4382
 1044TIP3    H224692   2.736   1.159   0.514 -0.8730 -0.2625 -0.2561
 1045TIP3   OH224693   4.078   6.444   8.009 -0.1107  0.1520 -0.1937
 1045TIP3    H124694   3.984   6.442   7.991 -0.2324 -1.4071  0.4493
 1045TIP3    H224695   4.111   6.516   7.955 -1.7057  0.9284 -0.1970
 1046TIP3   OH224696   6.762   0.561   2.201  0.4062 -0.1066 -0.0951
 1046TIP3    H124697   6.758   0.634   2.140  0.8336  0.4401  0.5287
 1046TIP3    H224698   6.670   0.544   2.224  0.2652 -0.1421 -0.6751
 1047TIP3   OH224699   1.154   5.696   0.416 -0.3809  0.1810 -0.2687
 1047TIP3    H124700   1.239   5.731   0.443 -0.5844  0.1703  0.4001
 1047TIP3    H224701   1.147   5.612   0.460 -0.1092 -0.4987 -1.4828
 1048TIP3   OH224702   2.768   1.477   7.504  0.5742  0.1971 -0.0456
 1048TIP3    H124703   2.804   1.498   7.418 -2.2424  2.9375 -0.7351
 1048TIP3    H224704   2.797   1.549   7.561 -0.9982  0.6957  0.1732
 1049TIP3   OH224705   2.119   1.056   1.771  0.7455 -0.5411 -0.0420
 1049TIP3    H124706   2.071   1.074   1.690  1.2964  1.3728  0.0036
 1049TIP3    H224707   2.211   1.069   1.747  0.8975  0.1946  0.9032
 1050TIP3   OH224708   1.131   6.551   7.500  0.0841  0.1410  0.0589
 1050TIP3    H124709   1.177   6.468   7.516 -1.6766 -0.9034 -0.0847
 1050TIP3    H224710   1.136   6.563   7.405 -0.6433 -0.4108 -0.0556
 1051TIP3   OH224711   4.810   6.233   2.806 -0.3915  0.7865 -0.0920
 1051TIP3    H124712   4.846   6.176   2.873 -0.5206  0.7431 -0.0587
 1051TIP3    H224713   4.885   6.283   2.773 -0.6015  2.1800  1.4018
 1052TIP3   OH224714   1.234   3.880   0.446  0.5113  0.1132 -0.2807
 1052TIP3    H124715   1.147   3.840   0.438  0.3267  0.6586 -1.1542
 1052TIP3    H224716   1.231   3.926   0.529  0.1952 -0.4189  0.0116
 1053TIP3   OH224717   6.862   5.542   1.505 -0.3768 -0.2824 -0.6413
 1053TIP3    H124718   6.906   5.550   1.420  1.9288  0.4269  0.5330
 1053TIP3    H224719   6.927   5.572   1.569 -1.1991 -2.9197  1.6250
 1054TIP3   OH224720   1.602   3.227   1.746  0.6188 -0.8051  0.0844
 1054TIP3    H124721   1.527   3.181   1.709  0.2958 -0.7499  0.6705
 1054TIP3    H224722   1.565   3.287   1.811  0.8849  1.2283 -1.5048
 1055TIP3   OH224723   4.584   3.652   2.169 -0.2709 -0.0196 -0.6061
 1055TIP3    H124724   4.572   3.694   2.083  0.8549 -0.1416 -0.8399
 1055TIP3    H224725   4.512   3.589   2.175 -0.9619  0.7078 -1.0094
 1056TIP3   OH224726   1.780   2.216   7.564  1.0428 -0.0917  0.1023
 1056TIP3    H124727   1.742   2.303   7.573  0.2620 -0.5001  1.0532
 1056TIP3    H224728   1.787   2.184   7.654 -0.4633 -1.7233 -0.2941
 1057TIP3   OH224729   4.645   0.686   7.444  0.2747  0.1910 -0.1506
 1057TIP3    H124730   4.551   0.669   7.438  0.0746  0.9532  0.6390
 1057TIP3    H224731   4.661   0.755   7.378  0.4858 -0.6642 -1.0203
 1058TIP3   OH224732   5.755   5.146   8.045 -0.0044  0.3105  0.3358
 1058TIP3    H124733   5.779   5.106   8.129  0.6496 -1.8465 -0.8045
 1058TIP3    H224734   5.712   5.076   7.996 -1.2275  1.7813 -0.8221
 1059TIP3   OH224735   0.337   0.493   8.429  0.0001  0.6118 -0.6794
 1059TIP3    H124736   0.418   0.494   8.378 -0.1719 -2.8166 -1.2861
 1059TIP3    H224737   0.361   0.449   8.511 -0.6894  2.0938  0.3519
 1060TIP3   OH224738   6.438   1.451   0.326 -0.1443 -0.1851 -0.4054
 1060TIP3    H124739   6.527   1.445   0.362  0.0804  0.9387 -0.7149
 1060TIP3    H224740   6.450   1.440   0.232 -0.3615 -0.2843 -0.4206
 1061TIP3   OH224741   5.506   1.489   2.497 -0.1859 -0.2243 -0.2377
 1061TIP3    H124742   5.442   1.422   2.519  0.0782 -0.1886  0.6939
 1061TIP3    H224743   5.575   1.442   2.450 -1.8104  0.0700 -3.1494
 1062TIP3   OH224744   0.439   6.892   0.268 -0.1836 -0.9496 -0.3297
 1062TIP3    H124745   0.394   6.812   0.296  0.4070 -1.1713  0.0074
 1062TIP3    H224746   0.470   6.873   0.180  0.6493 -1.3982  0.0459
 1063TIP3   OH224747   4.723   0.314   2.527 -0.1067 -0.3004 -0.0602
 1063TIP3    H124748   4.688   0.238   2.573  0.6565 -0.3758  0.4144
 1063TIP3    H224749   4.811   0.287   2.500  0.1258  0.3733  0.0139
 1064TIP3   OH224750   3.410   4.149   7.606 -0.8885  0.0055 -0.1995
 1064TIP3    H124751   3.357   4.081   7.564 -0.5901  1.1263 -2.5446
 1064TIP3    H224752   3.472   4.176   7.538  0.6961  0.8542  1.5000
 1065TIP3   OH224753   5.858   6.505   0.874 -0.0861  0.2074  0.0210
 1065TIP3    H124754   5.807   6.430   0.845 -0.9328  0.6963  0.2076
 1065TIP3    H224755   5.947   6.472   0.884 -0.2774 -0.5542 -0.7372
 1066TIP3   OH224756   6.839   3.554   7.654 -0.3661 -0.3561  0.1159
 1066TIP3    H124757   6.772   3.614   7.685  0.3829  0.4088  0.2997
 1066TIP3    H224758   6.804   3.467   7.671 -0.0649 -0.0025  2.9972
 1067TIP3   OH224759   5.937   1.826   7.787 -0.4089 -0.4054 -0.1217
 1067TIP3    H124760   5.981   1.774   7.855 -0.2455  0.8683  0.7971
 1067TIP3    H224761   5.877   1.882   7.836 -1.0036 -0.1504 -1.1282
 1068TIP3   OH224762   2.072   3.919   1.723  0.1914 -0.3663 -0.1492
 1068TIP3    H124763   1.979   3.918   1.698 -0.2897 -1.1858  1.5361
 1068TIP3    H224764   2.073   3.964   1.808  1.6198  1.3821 -1.0239
 1069TIP3   OH224765   5.855   3.345   8.080 -0.1086 -0.0229 -0.4090
 1069TIP3    H124766   5.827   3.390   8.001  1.4546  0.2062 -0.8681
 1069TIP3    H224767   5.946   3.373   8.093 -1.1992  2.6249  3.3537
 1070TIP3   OH224768   3.827   3.331   1.231  0.2975  0.6342  0.3232
 1070TIP3    H124769   3.865   3.245   1.215 -0.1323  0.2994  1.0475
 1070TIP3    H224770   3.893   3.379   1.281  0.7839  0.9462 -0.6010
 1071TIP3   OH224771   0.567   0.192   8.265  0.1934 -0.1177 -0.1791
 1071TIP3    H124772   0.662   0.196   8.272  0.1633  0.8592 -0.1864
 1071TIP3    H224773   0.535   0.231   8.347 -0.1849  0.4831 -0.5953
 1072TIP3   OH224774   6.752   1.936   2.015 -0.1713 -0.3962  0.1902
 1072TIP3    H124775   6.836   1.977   1.992 -0.2475 -0.2312  0.2066
 1072TIP3    H224776   6.775   1.846   2.038 -0.2372 -0.9745 -1.7770
 1073TIP3   OH224777   5.894   3.830   0.074  0.4322 -0.8660  0.3601
 1073TIP3    H124778   5.986   3.845   0.093  0.1023  1.1234  0.5732
 1073TIP3    H224779   5.851   3.828   0.159  0.1171 -0.6475  0.2099
 1074TIP3   OH224780   5.760   2.530   7.574  0.3115 -0.3295 -0.9342
 1074TIP3    H124781   5.736   2.481   7.495 -0.1697 -0.0502 -0.9654
 1074TIP3    H224782   5.690   2.509   7.636 -0.5421  1.2285 -1.3303
 1075TIP3   OH224783   3.857   3.121   8.152 -0.4191 -0.2629  0.2676
 1075TIP3    H124784   3.941   3.141   8.110  1.5173 -1.6036  3.0962
 1075TIP3    H224785   3.808   3.203   8.149  2.6246  1.8262  1.8182
 1076TIP3   OH224786   0.569   6.009   8.292 -0.0295  0.7010 -0.0784
 1076TIP3    H124787   0.600   5.982   8.378  1.2902 -1.7797 -1.2088
 1076TIP3    H224788   0.473   6.010   8.299 -0.1041 -2.2358  0.7805
 1077TIP3   OH224789   5.648   0.125   7.231 -0.8021  0.0892  0.2504
 1077TIP3    H124790   5.652   0.204   7.177 -1.4313 -1.4303 -2.1814
 1077TIP3    H224791   5.609   0.059   7.173 -0.3877 -1.9880  2.2166
 1078TIP3   OH224792   5.448   5.036   2.344  0.2478  0.1881 -0.1363
 1078TIP3    H124793   5.429   5.130   2.340  0.0369  0.2301  1.2195
 1078TIP3    H224794   5.467   5.020   2.437  2.4042 -0.7109 -0.6856
 1079TIP3   OH224795   3.453   5.864   8.087  0.1396  0.3033 -0.3788
 1079TIP3    H124796   3.518   5.884   8.154  0.0064  1.3622 -0.5467
 1079TIP3    H224797   3.370   5.896   8.124 -0.0942  0.0060 -0.6430
 1080TIP3   OH224798   5.368   5.773   8.306  0.2424  0.0398 -0.2676
 1080TIP3    H124799   5.439   5.801   8.363 -0.8952  1.7441  0.3714
 1080TIP3    H224800   5.366   5.678   8.317  2.4682 -0.0858 -0.4102
 1081TIP3   OH224801   0.169   3.125   1.536  0.2421  0.1136 -0.2452
 1081TIP3    H124802   0.089   3.123   1.485  0.1273  1.1605 -0.1123
 1081TIP3    H224803   0.221   3.196   1.499  0.5028  0.3615  0.5720
 1082TIP3   OH224804   4.427   1.916   0.760 -0.0480 -0.5164  0.2505
 1082TIP3    H124805   4.419   1.982   0.691 -1.6531 -0.5329  0.3848
 1082TIP3    H224806   4.396   1.959   0.839  0.7151 -0.8539  0.7529
 1083TIP3   OH224807   5.715   2.387   0.277  0.1941 -0.5905 -0.8032
 1083TIP3    H124808   5.626   2.423   0.265  0.4953 -0.4438 -3.1111
 1083TIP3    H224809   5.739   2.354   0.191  2.0304 -1.5374  0.0141
 1084TIP3   OH224810   6.243   3.829   0.668 -0.3294  0.0162  0.4428
 1084TIP3    H124811   6.308   3.838   0.738  0.5534  0.5643 -0.4209
 1084TIP3    H224812   6.169   3.881   0.697 -0.2618 -0.3316  1.2862
 1085TIP3   OH224813   2.376   3.110   0.672 -0.2837  0.2677 -0.5682
 1085TIP3    H124814   2.437   3.037   0.684 -0.3540 -0.0235 -1.7780
 1085TIP3    H224815   2.351   3.136   0.760  1.5200  0.3351 -0.0336
 1086TIP3   OH224816   3.629   6.150   1.699  0.1877  0.7030 -0.4685
 1086TIP3    H124817   3.622   6.059   1.671 -0.4973 -0.3694  2.7484
 1086TIP3    H224818   3.712   6.154   1.746 -0.1935  1.5159  0.1470
 1087TIP3   OH224819   3.712   4.966   8.504 -0.1384 -0.1169 -0.2092
 1087TIP3    H124820   3.733   5.002   8.590 -1.7360 -3.4065  1.7489
 1087TIP3    H224821   3.747   5.030   8.442  1.0182  2.4622  2.8341
 1088TIP3   OH224822   2.399   5.856   7.931  0.3673 -0.1281 -0.1941
 1088TIP3    H124823   2.344   5.778   7.932  0.5735 -0.3917 -2.7889
 1088TIP3    H224824   2.475   5.833   7.984 -0.5862 -0.8323  0.9325
 1089TIP3   OH224825   6.510   0.334   0.088  0.2769  0.3325 -0.2254
 1089TIP3    H124826   6.506   0.326  -0.008  1.3843 -1.6629 -0.1389
 1089TIP3    H224827   6.601   0.316   0.110 -0.3364 -1.0853  1.3370
 1090TIP3   OH224828   4.487   3.023   7.769 -0.3722 -0.2636 -0.3565
 1090TIP3    H124829   4.495   3.045   7.676 -0.6176  0.6088 -0.1779
 1090TIP3    H224830   4.419   2.956   7.772 -1.9606  1.2583 -0.6164
 1091TIP3   OH224831   1.776   3.548   3.166 -0.4559 -0.7154  0.0470
 1091TIP3    H124832   1.729   3.576   3.087 -1.0825 -1.0136  0.3032
 1091TIP3    H224833   1.733   3.466   3.191  0.4329 -1.1881  0.0957
 1092TIP3   OH224834   5.903   0.498   1.680 -0.0871 -0.2342  0.4304
 1092TIP3    H124835   5.824   0.530   1.723  1.0106 -0.3861  2.7059
 1092TIP3    H224836   5.890   0.403   1.673 -0.2030 -0.2277  0.5665
 1093TIP3   OH224837   1.841   4.734   1.803  0.0420 -0.0127  0.1036
 1093TIP3    H124838   1.785   4.734   1.880 -1.7291 -1.6051 -1.0680
 1093TIP3    H224839   1.917   4.681   1.828 -0.3308 -0.1853  0.8845
 1094TIP3   OH224840   2.475   0.223   8.228  0.1890 -0.0736  0.0250
 1094TIP3    H124841   2.506   0.217   8.137 -0.2633 -2.9016 -0.0285
 1094TIP3    H224842   2.383   0.247   8.220 -0.0908 -1.2044 -0.3544
 1095TIP3   OH224843   3.932   6.311   1.211  0.2919 -0.0767 -0.3242
 1095TIP3    H124844   3.946   6.373   1.140  2.1273  1.1574  1.0272
 1095TIP3    H224845   3.983   6.234   1.187  2.4257  1.0289  0.4268
 1096TIP3   OH224846   6.454   6.035   8.142  0.1459 -0.0803 -0.1520
 1096TIP3    H124847   6.533   6.068   8.185  0.1406  0.1329 -0.3039
 1096TIP3    H224848   6.472   6.045   8.048  0.7752 -1.9229 -0.2867
 1097TIP3   OH224849   3.382   2.322   3.128 -0.0776  0.3960 -0.5702
 1097TIP3    H124850   3.429   2.247   3.165  0.2543  0.7305 -0.3167
 1097TIP3    H224851   3.434   2.398   3.152 -0.8700  0.7981 -0.0950
 1098TIP3   OH224852   1.077   4.651   8.379  0.3002  0.0993 -0.1544
 1098TIP3    H124853   1.046   4.560   8.373 -1.4434  0.5891  0.6737
 1098TIP3    H224854   1.018   4.700   8.322  0.2457  0.9211  0.5882
 1099TIP3   OH224855   1.244   5.074   1.125 -0.1300  0.0348 -0.0786
 1099TIP3    H124856   1.191   5.134   1.072  0.6531  0.6828 -0.1455
 1099TIP3    H224857   1.291   5.020   1.062 -0.9464 -0.7778 -0.0190
 1100TIP3   OH224858   6.080   1.295   8.086 -0.1317 -0.2046 -0.0384
 1100TIP3    H124859   6.008   1.335   8.134  1.4096  0.6352  1.6840
 1100TIP3    H224860   6.116   1.366   8.034 -0.3494 -0.5598 -0.6878
 1101TIP3   OH224861   1.021   4.458   7.763 -0.2709  0.0632  0.8400
 1101TIP3    H124862   1.009   4.449   7.669  0.5687  1.7645  0.5297
 1101TIP3    H224863   1.082   4.387   7.787 -0.6877 -0.5284  0.1688
 1102TIP3   OH224864   1.032   6.581   2.121  0.2709  0.1860 -0.0584
 1102TIP3    H124865   1.062   6.527   2.048 -0.7126  0.9032 -1.0278
 1102TIP3    H224866   1.105   6.639   2.139  0.2124  0.6025 -1.0798
 1103TIP3   OH224867   2.014   2.100   2.275 -0.0264  0.2343  0.0493
 1103TIP3    H124868   1.922   2.071   2.283 -0.3713  1.2984  0.0110
 1103TIP3    H224869   2.008   2.188   2.238  1.0194  0.3160  0.0694
 1104TIP3   OH224870   6.466   4.054   7.011 -0.3831 -0.5180 -0.2858
 1104TIP3    H124871   6.418   3.989   7.063 -0.2825 -0.7223 -0.4432
 1104TIP3    H224872   6.420   4.057   6.927 -0.2999 -0.4952 -0.3312
 1105TIP3   OH224873   4.831   4.459   2.239  1.0659  0.0220 -0.3791
 1105TIP3    H124874   4.784   4.420   2.313  0.0125  2.1976  0.1722
 1105TIP3    H224875   4.763   4.489   2.179  1.8875 -0.6730 -1.7170
 1106TIP3   OH224876   6.314   1.952   1.555  0.0701 -0.1267  0.0931
 1106TIP3    H124877   6.328   1.884   1.621 -0.6400 -0.4140 -0.0388
 1106TIP3    H224878   6.276   2.025   1.603  0.9996  0.2592  0.2668
 1107TIP3   OH224879   4.512   4.753   8.575  0.4596 -0.9449 -0.0072
 1107TIP3    H124880   4.421   4.727   8.557 -0.1495  0.4058  0.9467
 1107TIP3    H224881   4.512   4.779   8.667  1.6867 -0.3786 -0.1489
 1108TIP3   OH224882   4.193   5.359   2.021  0.1045 -0.2073 -0.0344
 1108TIP3    H124883   4.161   5.435   1.973  0.3396 -0.5976 -0.8448
 1108TIP3    H224884   4.216   5.296   1.952  0.3983 -0.8110  0.6031
 1109TIP3   OH224885   6.492   2.717   2.311  0.1832  0.1913 -0.4943
 1109TIP3    H124886   6.427   2.781   2.284  0.9540  0.1672 -2.5785
 1109TIP3    H224887   6.569   2.768   2.335  0.1290  0.1185 -0.1544
 1110TIP3   OH224888   3.972   1.447   8.472 -0.1385 -0.1233 -0.0097
 1110TIP3    H124889   4.029   1.425   8.398  0.9217 -0.1628  0.8050
 1110TIP3    H224890   4.013   1.523   8.513 -0.9199  0.1259  0.3247
 1111TIP3   OH224891   2.124   6.897   2.096  0.3472 -0.4145  0.3072
 1111TIP3    H124892   2.141   6.966   2.160  2.5374 -0.3151 -0.2917
 1111TIP3    H224893   2.146   6.937   2.012  2.1904 -1.9430 -0.0034
 1112TIP3   OH224894   4.059   5.243   8.209  0.0352 -0.4371 -0.3429
 1112TIP3    H124895   4.139   5.191   8.196  1.0037  1.3438 -1.9014
 1112TIP3    H224896   4.086   5.333   8.197 -1.5224  0.5989  2.6997
 1113TIP3   OH224897   4.906   1.309   7.997  0.2659 -0.3435  0.2461
 1113TIP3    H124898   4.817   1.305   8.032 -0.0193  1.5905 -0.1172
 1113TIP3    H224899   4.899   1.268   7.911  0.0135 -1.3014  0.7108
 1114TIP3   OH224900   6.337   6.611   7.603 -0.1621  0.6399 -0.6539
 1114TIP3    H124901   6.296   6.554   7.538 -1.1478 -0.0857  0.5645
 1114TIP3    H224902   6.429   6.585   7.602 -0.6768 -1.4884  0.3170
 1115TIP3   OH224903   4.573   3.567   7.194  0.1177 -0.1382  0.3638
 1115TIP3    H124904   4.531   3.606   7.270 -1.6121 -0.3078 -0.4534
 1115TIP3    H224905   4.631   3.500   7.230 -0.7396 -0.2822  1.5313
 1116TIP3   OH224906   1.707   0.432   1.868 -0.1801 -0.2100 -0.3409
 1116TIP3    H124907   1.765   0.469   1.934 -1.0962  0.7413 -0.0489
 1116TIP3    H224908   1.645   0.378   1.917 -0.2579 -0.2976 -0.5327
 1117TIP3   OH224909   4.499   6.749   7.675 -0.5157 -0.4543  0.3621
 1117TIP3    H124910   4.404   6.737   7.686 -1.1566  2.5071 -0.8671
 1117TIP3    H224911   4.515   6.724   7.584 -0.1801 -0.5891  0.4589
 1118TIP3   OH224912   0.760   3.855   8.014 -0.2442 -0.3742  0.1690
 1118TIP3    H124913   0.717   3.802   7.947  0.2594  0.1976 -0.6130
 1118TIP3    H224914   0.699   3.926   8.031  0.0704  0.0485 -0.4340
 1119TIP3   OH224915   5.259   0.209   1.110 -0.3176  0.1791 -0.4412
 1119TIP3    H124916   5.221   0.290   1.144  1.0008  0.2867  0.8727
 1119TIP3    H224917   5.238   0.210   1.016 -1.1971  1.5177 -0.2586
 1120TIP3   OH224918   0.458   5.055   0.549 -0.7156  0.3855  0.5298
 1120TIP3    H124919   0.368   5.082   0.566  0.0742  2.6457  1.6513
 1120TIP3    H224920   0.485   5.109   0.474  0.3785  1.5670  1.7084
 1121TIP3   OH224921   0.396   4.337   0.594 -0.1551  0.3108 -0.1138
 1121TIP3    H124922   0.382   4.250   0.631  0.5358  0.6871  1.0797
 1121TIP3    H224923   0.399   4.323   0.500  0.3469 -1.0253  0.0841
 1122TIP3   OH224924   4.140   3.948   8.104 -0.1623 -0.0908  0.4005
 1122TIP3    H124925   4.217   3.922   8.155 -0.9340  2.1196  2.9021
 1122TIP3    H224926   4.160   4.035   8.072 -1.1178 -0.0285 -0.0631
 1123TIP3   OH224927   4.447   3.099   1.724  0.2024 -0.5365 -0.5597
 1123TIP3    H124928   4.498   3.151   1.786 -2.0968  0.8256  0.3001
 1123TIP3    H224929   4.414   3.163   1.661  2.1466 -1.8285 -3.0757
 1124TIP3   OH224930   1.975   1.857   2.455  0.1582  0.2154 -0.0835
 1124TIP3    H124931   1.892   1.891   2.490  0.4386 -0.7735  1.6162
 1124TIP3    H224932   2.040   1.877   2.522  0.6413 -2.1186  0.2346
 1125TIP3   OH224933   2.368   0.341   8.545  0.7290 -0.4313 -0.7302
 1125TIP3    H124934   2.350   0.253   8.512 -0.5237  0.8446 -3.8316
 1125TIP3    H224935   2.326   0.343   8.631  0.9335 -2.8655 -0.4951
 1126TIP3   OH224936   0.573   5.107   2.553 -0.4575  0.8244 -0.5535
 1126TIP3    H124937   0.649   5.108   2.496 -0.7128  0.7670 -0.8982
 1126TIP3    H224938   0.600   5.155   2.631 -0.4786  1.9115 -1.1972
 1127TIP3   OH224939   6.269   1.423   0.580 -0.1260 -0.1064  0.1144
 1127TIP3    H124940   6.234   1.507   0.608  0.6901  0.7447 -1.3233
 1127TIP3    H224941   6.344   1.445   0.524  1.3341 -1.8129  1.2679
 1128TIP3   OH224942   6.299   4.106   2.440  0.2337 -0.0644 -0.5605
 1128TIP3    H124943   6.260   4.018   2.435  0.2161  0.0082 -1.9842
 1128TIP3    H224944   6.225   4.165   2.426  0.9115  0.0586 -4.6138
 1129TIP3   OH224945   1.671   0.919   1.862 -0.3936 -0.3265 -0.4145
 1129TIP3    H124946   1.722   0.874   1.795  1.5362  0.1419  0.6729
 1129TIP3    H224947   1.720   0.905   1.943 -0.4320  2.5325  0.2221
 1130TIP3   OH224948   3.295   0.593   7.285 -0.0057 -0.4378  0.7449
 1130TIP3    H124949   3.208   0.557   7.267  0.2512 -1.1681  0.9150
 1130TIP3    H224950   3.355   0.523   7.259  0.5147 -0.1006  1.0252
 1131TIP3   OH224951   0.798   1.665   1.525  0.5828 -0.2553  0.9182
 1131TIP3    H124952   0.893   1.681   1.531  0.3331  1.3665  1.0239
 1131TIP3    H224953   0.791   1.577   1.490  2.1426 -0.2585  0.5339
 1132TIP3   OH224954   5.248   2.861   0.678  0.1965  0.2941 -0.1610
 1132TIP3    H124955   5.221   2.800   0.746  0.7983 -0.3088 -0.4471
 1132TIP3    H224956   5.187   2.846   0.606  0.0722  0.3514 -0.0687
 1133TIP3   OH224957   1.010   3.352   7.705 -0.0014  0.1675 -0.2422
 1133TIP3    H124958   0.983   3.443   7.723  1.3414  0.2607  1.5973
 1133TIP3    H224959   1.082   3.336   7.766  0.4855 -1.8170 -1.2599
 1134TIP3   OH224960   3.364   0.794   1.097  0.2708 -0.2255  0.2799
 1134TIP3    H124961   3.326   0.744   1.024 -1.4842 -1.8727  2.1985
 1134TIP3    H224962   3.443   0.744   1.121  0.4352 -0.1026  0.0059
 1135TIP3   OH224963   2.565   1.622   0.478  0.3534  0.3399 -0.0005
 1135TIP3    H124964   2.527   1.650   0.561  0.8882  1.7881 -0.2184
 1135TIP3    H224965   2.563   1.526   0.482 -1.8180  0.3710  0.6466
 1136TIP3   OH224966   2.353   2.524   1.574 -0.2672 -0.3266 -0.1369
 1136TIP3    H124967   2.312   2.567   1.649  0.1181 -0.7020  0.2981
 1136TIP3    H224968   2.305   2.441   1.565 -0.5905 -0.0993 -0.5773
 1137TIP3   OH224969   0.594   2.667   0.399 -0.2422 -0.6208  0.2664
 1137TIP3    H124970   0.532   2.655   0.327  0.1851 -0.4963 -0.1333
 1137TIP3    H224971   0.547   2.637   0.477 -1.1217  0.3178  0.1186
 1138TIP3   OH224972   2.587   2.308   0.935 -0.5958 -0.0065 -0.4302
 1138TIP3    H124973   2.555   2.219   0.945 -1.5783  0.3264 -0.4588
 1138TIP3    H224974   2.512   2.357   0.899  0.0895  0.7116 -0.9386
 1139TIP3   OH224975   1.159   2.919   7.406 -0.5284  0.1155 -0.5262
 1139TIP3    H124976   1.114   2.843   7.443  1.3831 -2.3020 -2.7239
 1139TIP3    H224977   1.147   2.909   7.311  0.6888  1.9751 -0.9174
 1140TIP3   OH224978   0.192   5.231   0.882  0.2472 -0.3308  0.9036
 1140TIP3    H124979   0.173   5.149   0.928  0.5951  0.1306  1.9003
 1140TIP3    H224980   0.112   5.248   0.831  0.1008 -1.1882  0.8237
 1141TIP3   OH224981   2.112   2.841   3.300 -0.3323 -0.2011  0.0239
 1141TIP3    H124982   2.178   2.860   3.234  0.6121 -3.1425 -0.0345
 1141TIP3    H224983   2.073   2.758   3.272 -2.8636  0.5522  0.9962
 1142TIP3   OH224984   1.646   1.727   7.707  0.0318 -0.5662 -0.2769
 1142TIP3    H124985   1.735   1.724   7.672  0.0669 -1.8631 -0.1131
 1142TIP3    H224986   1.594   1.676   7.645 -0.7677  0.7878 -0.7727
 1143TIP3   OH224987   1.846   5.515   1.183 -0.0339  0.8000 -0.8052
 1143TIP3    H124988   1.757   5.502   1.150 -0.3570  0.1786  0.2468
 1143TIP3    H224989   1.836   5.579   1.254  0.3706  0.7972 -0.7437
 1144TIP3   OH224990   4.877   4.195   6.836  0.1203  0.2309 -0.2538
 1144TIP3    H124991   4.954   4.197   6.779 -0.8731 -1.0542 -1.7462
 1144TIP3    H224992   4.907   4.231   6.919  2.3824 -0.4403 -0.7124
 1145TIP3   OH224993   1.737   4.075   8.450 -0.6699 -0.0725  0.1288
 1145TIP3    H124994   1.651   4.117   8.458 -0.6393 -0.2101  1.3480
 1145TIP3    H224995   1.790   4.139   8.402 -0.7845  1.0739  1.4488
 1146TIP3   OH224996   5.655   1.721   2.532  0.8613  0.4768 -0.4333
 1146TIP3    H124997   5.730   1.670   2.500  0.6945 -0.1452  0.1421
 1146TIP3    H224998   5.586   1.656   2.546 -0.0451  1.1409 -1.6795
 1147TIP3   OH224999   3.219   1.456   0.340 -0.2322 -0.1477  0.3295
 1147TIP3    H125000   3.186   1.479   0.253  2.3184  0.3128 -0.5889
 1147TIP3    H225001   3.141   1.423   0.387 -1.8306  0.3237 -1.8273
 1148TIP3   OH225002   3.030   3.266   0.497 -0.0590  0.1070 -0.2610
 1148TIP3    H125003   2.963   3.263   0.565 -0.2016  0.4808 -0.3850
 1148TIP3    H225004   3.102   3.315   0.536 -0.2745  0.6184 -0.4936
 1149TIP3   OH225005   3.408   5.117   2.220  0.0462 -0.5073 -0.2758
 1149TIP3    H125006   3.491   5.093   2.262  0.7933 -1.4211 -2.1577
 1149TIP3    H225007   3.342   5.106   2.289  0.9441 -3.8648  0.2291
 1150TIP3   OH225008   3.150   3.508   8.432 -0.0445  0.6858  0.0935
 1150TIP3    H125009   3.146   3.554   8.348  0.0664 -0.4279 -0.5317
 1150TIP3    H225010   3.226   3.547   8.476  0.7736  0.3118 -0.9218
 1151TIP3   OH225011   6.779   4.184   2.384  0.1881  0.3754  0.2691
 1151TIP3    H125012   6.848   4.146   2.330 -1.1922  0.4608 -1.6709
 1151TIP3    H225013   6.698   4.165   2.336 -1.2236 -0.2315  2.7356
 1152TIP3   OH225014   2.892   1.081   7.862 -0.0150 -0.0843  0.0181
 1152TIP3    H125015   2.805   1.054   7.889 -0.0514  2.1423  2.5591
 1152TIP3    H225016   2.952   1.028   7.914 -0.0452  1.9201  2.2922
 1153TIP3   OH225017   3.682   3.974   8.504  0.1125  0.4018  0.6115
 1153TIP3    H125018   3.700   4.062   8.535 -1.3305  0.5341  1.1484
 1153TIP3    H225019   3.592   3.956   8.533  0.4088 -1.2777  0.6105
 1154TIP3   OH225020   2.658   6.307   2.335  0.2023 -0.0747 -0.2611
 1154TIP3    H125021   2.610   6.371   2.283  0.5135  1.8541  1.6520
 1154TIP3    H225022   2.593   6.268   2.393  0.2227 -0.6743 -0.6286
 1155TIP3   OH225023   6.542   3.119   8.567  0.0503  0.0303  0.3837
 1155TIP3    H125024   6.516   3.027   8.562  1.1280 -0.2349 -1.0527
 1155TIP3    H225025   6.593   3.125   8.648 -0.7272 -0.4249  0.9253
 1156TIP3   OH225026   3.894   0.519   2.180 -0.2335  0.0287 -0.7153
 1156TIP3    H125027   3.965   0.537   2.241 -0.7576 -0.2930 -0.0015
 1156TIP3    H225028   3.920   0.437   2.136 -0.1342 -0.0535 -0.5034
 1157TIP3   OH225029   1.339   2.140   8.186 -0.0268 -0.1005 -0.3289
 1157TIP3    H125030   1.272   2.179   8.241  0.6630 -0.7251  1.0255
 1157TIP3    H225031   1.421   2.178   8.218  0.3534 -0.1379 -1.2389
 1158TIP3   OH225032   1.502   2.389   1.738  0.2782 -0.3939 -0.5277
 1158TIP3    H125033   1.558   2.409   1.663 -0.3785  1.4222 -0.5790
 1158TIP3    H225034   1.563   2.381   1.811  0.8957 -1.8752 -1.1392
 1159TIP3   OH225035   4.489   6.282   8.488 -0.1221  0.1344  0.2111
 1159TIP3    H125036   4.424   6.233   8.439 -0.8456  1.4057 -0.1533
 1159TIP3    H225037   4.451   6.370   8.497  0.7503  0.4070  1.5533
 1160TIP3   OH225038   6.463   4.012   0.017  0.1946 -0.3997 -0.3196
 1160TIP3    H125039   6.546   3.969  -0.003 -0.1069 -0.8944 -0.5186
 1160TIP3    H225040   6.441   3.981   0.105  1.4690  1.6912  0.8320
 1161TIP3   OH225041   1.630   1.832   2.382 -0.0734  0.1495  0.7129
 1161TIP3    H125042   1.538   1.857   2.384 -0.1639 -0.1633  0.5697
 1161TIP3    H225043   1.629   1.738   2.400  0.2112  0.1275  0.6158
 1162TIP3   OH225044   1.836   4.031   0.717 -0.1147 -0.5237  0.3697
 1162TIP3    H125045   1.902   4.019   0.649 -0.9035 -1.0767 -0.3204
 1162TIP3    H225046   1.865   3.975   0.789 -0.8967 -2.4683 -0.7418
 1163TIP3   OH225047   5.432   0.880   7.700 -0.4531 -0.5954  0.1367
 1163TIP3    H125048   5.469   0.792   7.693  0.1850 -0.2475 -1.4283
 1163TIP3    H225049   5.508   0.938   7.699 -0.9062  0.0091 -0.1926
 1164TIP3   OH225050   1.528   1.896   8.404 -0.1112  0.2650 -0.6551
 1164TIP3    H125051   1.590   1.957   8.364  0.0736  0.4326 -0.1205
 1164TIP3    H225052   1.581   1.819   8.424 -0.7261 -0.9046 -3.1340
 1165TIP3   OH225053   2.482   3.828   8.445 -0.2970  0.2769  0.8784
 1165TIP3    H125054   2.483   3.854   8.353 -1.3614  1.6308  1.1962
 1165TIP3    H225055   2.573   3.837   8.474  0.0041  0.0654  0.0197
 1166TIP3   OH225056   6.643   6.466   1.916 -0.3274  0.1965 -0.3368
 1166TIP3    H125057   6.615   6.513   1.994  1.4477  0.1380  0.3971
 1166TIP3    H225058   6.597   6.508   1.844  0.3770  2.3856  0.4053
 1167TIP3   OH225059   1.951   1.695   7.998  0.1945 -0.1677 -0.1345
 1167TIP3    H125060   2.020   1.683   8.063 -1.0639  0.6581  1.4632
 1167TIP3    H225061   1.912   1.608   7.988  0.7842 -0.4224 -0.2468
 1168TIP3   OH225062   4.137   2.008   2.563 -0.7166  0.1032  0.0470
 1168TIP3    H125063   4.089   1.932   2.529 -1.0171  0.0274  0.6222
 1168TIP3    H225064   4.208   1.970   2.614 -0.7177  0.2113  0.1287
 1169TIP3   OH225065   1.629   2.437   7.654  0.0581 -0.0462 -0.3528
 1169TIP3    H125066   1.637   2.385   7.734  1.0444  0.0740 -0.3564
 1169TIP3    H225067   1.661   2.523   7.678  1.8812 -0.4207 -1.2447
 1170TIP3   OH225068   3.679   5.874   0.018 -0.4843 -0.1062 -0.0214
 1170TIP3    H125069   3.715   5.786   0.027 -2.1112 -1.0488 -1.8931
 1170TIP3    H225070   3.740   5.919  -0.041 -1.0148 -0.8882 -1.2073
 1171TIP3   OH225071   0.458   4.858   1.494  0.2648 -0.1280  0.0248
 1171TIP3    H125072   0.383   4.815   1.535 -0.3122  0.5976 -0.2349
 1171TIP3    H225073   0.456   4.947   1.530 -0.7067  0.7680 -2.0938
 1172TIP3   OH225074   4.018   1.150   2.114 -0.1182 -0.0100  0.0427
 1172TIP3    H125075   3.971   1.230   2.090 -0.5002 -0.1667  0.2654
 1172TIP3    H225076   3.964   1.079   2.081  0.9096 -0.1606 -1.3917
 1173TIP3   OH225077   6.310   2.896   2.069  0.1593 -0.3487  0.4216
 1173TIP3    H125078   6.231   2.913   2.017  0.5661  0.3583  0.0204
 1173TIP3    H225079   6.283   2.913   2.159  0.0037  0.4749  0.2287
 1174TIP3   OH225080   4.909   1.751   7.660 -0.3632  0.3971 -0.1287
 1174TIP3    H125081   4.857   1.827   7.683 -1.2129 -0.4714  0.9276
 1174TIP3    H225082   4.855   1.702   7.598 -1.3890 -1.0840  1.8159
 1175TIP3   OH225083   0.732   1.444   7.761  0.0509  0.3774 -0.0575
 1175TIP3    H125084   0.670   1.376   7.736 -1.1340  1.7085 -0.8956
 1175TIP3    H225085   0.751   1.426   7.853 -0.0334 -1.2029 -0.3200
 1176TIP3   OH225086   6.371   5.824   1.902  0.0447 -0.7377  0.2756
 1176TIP3    H125087   6.429   5.900   1.900  0.5540 -1.1250  0.1032
 1176TIP3    H225088   6.288   5.856   1.866  0.1177 -0.1547  0.6176
 1177TIP3   OH225089   4.777   0.424   0.599  0.4236 -0.1301 -0.1882
 1177TIP3    H125090   4.762   0.411   0.693  1.2283 -1.8130 -0.2529
 1177TIP3    H225091   4.702   0.476   0.570 -1.1497 -1.6679  0.9307
 1178TIP3   OH225092   1.849   3.191   7.977  0.1817 -0.3741  0.0711
 1178TIP3    H125093   1.805   3.118   8.020  0.3001  0.6389  2.0329
 1178TIP3    H225094   1.924   3.210   8.033  0.1258  1.2680 -0.3590
 1179TIP3   OH225095   5.056   2.538   2.133 -0.2464 -0.3768 -0.5899
 1179TIP3    H125096   4.996   2.463   2.136 -1.4944  0.5861 -0.5400
 1179TIP3    H225097   5.050   2.569   2.043  2.1987 -1.8031 -1.3329
 1180TIP3   OH225098   3.408   2.305   1.121  0.3633  0.3341  0.4414
 1180TIP3    H125099   3.425   2.309   1.027  3.5338 -2.9696  0.6681
 1180TIP3    H225100   3.386   2.213   1.138 -2.6955  1.3039  2.6955
 1181TIP3   OH225101   4.048   4.305   1.749 -0.5092 -0.6398 -0.0324
 1181TIP3    H125102   4.006   4.226   1.782  1.4934 -0.9236  2.1174
 1181TIP3    H225103   3.996   4.377   1.785 -1.2631 -0.9584 -0.4686
 1182TIP3   OH225104   5.356   0.091   7.906  0.5536 -0.4646  0.0341
 1182TIP3    H125105   5.392   0.180   7.910 -0.0824 -0.2189  0.4851
 1182TIP3    H225106   5.333   0.079   7.813  1.1648 -0.3774 -0.1324
 1183TIP3   OH225107   6.238   4.991   1.396  0.3269 -0.0469 -0.4433
 1183TIP3    H125108   6.236   5.086   1.385  0.5730 -0.0696 -0.7013
 1183TIP3    H225109   6.153   4.970   1.436  0.4178  0.3171 -0.0469
 1184TIP3   OH225110   6.268   5.642   1.589  0.0528  0.2228 -0.0104
 1184TIP3    H125111   6.328   5.717   1.600 -0.6771  0.8099  0.0318
 1184TIP3    H225112   6.245   5.643   1.496 -0.2964  0.3135  0.0770
 1185TIP3   OH225113   6.748   0.689   1.104 -0.0751  0.3151  0.2886
 1185TIP3    H125114   6.825   0.644   1.138 -0.1384  0.1862  0.2640
 1185TIP3    H225115   6.778   0.777   1.084  0.2721  0.0319 -0.4783
 1186TIP3   OH225116   1.644   2.521   8.398 -0.4281  0.4869  0.2406
 1186TIP3    H125117   1.601   2.595   8.355  1.4571  0.8497 -1.2010
 1186TIP3    H225118   1.594   2.444   8.372 -0.2748  0.8925 -1.3464
 1187TIP3   OH225119   1.258   3.192   7.516  0.5417 -0.5517 -0.3425
 1187TIP3    H125120   1.332   3.134   7.534 -0.6230 -2.0236 -0.0793
 1187TIP3    H225121   1.192   3.165   7.580 -0.1256  0.9285 -0.3829
 1188TIP3   OH225122   2.129   3.104   7.832  0.0213 -0.1604 -0.1819
 1188TIP3    H125123   2.176   3.184   7.809  0.5664 -0.2034  0.7449
 1188TIP3    H225124   2.097   3.119   7.921  1.9736 -1.7527  0.8867
 1189TIP3   OH225125   0.796   5.074   1.312  0.3046 -0.6040  0.2861
 1189TIP3    H125126   0.869   5.135   1.305 -1.1113  1.1817  0.3250
 1189TIP3    H225127   0.720   5.130   1.327 -1.1494 -2.3644 -0.2431
 1190TIP3   OH225128   0.178   2.734   0.235 -0.2626  0.2015  0.3913
 1190TIP3    H125129   0.229   2.800   0.283  0.5955  0.0379 -0.2818
 1190TIP3    H225130   0.088   2.750   0.263 -0.2143  2.2654 -0.4100
 1191TIP3   OH225131   1.998   5.830   1.863 -0.1576  0.2492  0.3949
 1191TIP3    H125132   1.932   5.856   1.927  1.4526  0.9843  1.8356
 1191TIP3    H225133   2.008   5.736   1.874 -1.2486  0.0602 -0.1408
 1192TIP3   OH225134   6.209   0.400   3.330  0.1609  0.0037 -0.2082
 1192TIP3    H125135   6.284   0.342   3.327 -0.5869 -0.9597 -0.8578
 1192TIP3    H225136   6.156   0.376   3.254 -1.4081 -0.1953  0.8833
 1193TIP3   OH225137   2.648   1.068   1.462 -0.4214 -0.0330  0.5592
 1193TIP3    H125138   2.706   0.996   1.488 -0.3415  0.0525  0.6176
 1193TIP3    H225139   2.615   1.104   1.544 -0.8863 -0.3474  0.5131
 1194TIP3   OH225140   2.493   3.466   2.271 -0.4282 -0.8827  0.3484
 1194TIP3    H125141   2.568   3.501   2.319 -0.6645  0.6537 -0.3363
 1194TIP3    H225142   2.501   3.503   2.183 -1.6329 -1.2035  0.0741
 1195TIP3   OH225143   2.066   4.785   7.069 -0.4940 -0.0460 -0.0523
 1195TIP3    H125144   2.050   4.694   7.092 -1.0126 -0.2971 -1.3062
 1195TIP3    H225145   1.980   4.820   7.049 -0.2673  0.6455  0.1601
 1196TIP3   OH225146   0.795   3.082   7.830 -0.1402  0.0638 -0.0915
 1196TIP3    H125147   0.841   3.153   7.784  0.4938 -0.2371  0.0711
 1196TIP3    H225148   0.707   3.117   7.845  0.3416  1.0454  0.5282
 1197TIP3   OH225149   4.592   1.116   1.428  0.1804 -0.3013  0.3799
 1197TIP3    H125150   4.619   1.102   1.337 -0.8811 -2.0194  0.2808
 1197TIP3    H225151   4.500   1.092   1.429 -0.1691  0.9784  1.6629
 1198TIP3   OH225152   1.336   6.876   8.295 -0.0267 -0.3830  0.0848
 1198TIP3    H125153   1.344   6.917   8.382  0.3588  0.0237 -0.1406
 1198TIP3    H225154   1.353   6.783   8.311  1.2810 -0.1287  0.2548
 1199TIP3   OH225155   4.498   3.851   0.736 -0.0839  0.1111 -0.7143
 1199TIP3    H125156   4.495   3.833   0.643  0.8126  1.8539 -1.1212
 1199TIP3    H225157   4.470   3.942   0.744 -0.2796 -0.0486  0.7364
 1200TIP3   OH225158   1.487   0.104   0.886 -0.5015 -0.0638 -0.0635
 1200TIP3    H125159   1.491   0.037   0.955  1.2929 -0.3658 -0.4233
 1200TIP3    H225160   1.494   0.187   0.934 -2.5300 -0.0738  0.3648
 1201TIP3   OH225161   2.201   6.039   0.206 -0.1535 -0.0681 -0.0332
 1201TIP3    H125162   2.152   6.107   0.160  1.4724  0.8570 -0.4561
 1201TIP3    H225163   2.201   6.068   0.297  0.4112  0.4259 -0.1884
 1202TIP3   OH225164   2.465   0.741   7.949  0.5337  0.0007  0.1347
 1202TIP3    H125165   2.417   0.677   7.896  0.7571 -0.7009  0.7664
 1202TIP3    H225166   2.399   0.774   8.011  0.7117 -0.4962  0.5884
 1203TIP3   OH225167   4.673   3.247   1.451 -0.3087 -0.3787 -0.5016
 1203TIP3    H125168   4.583   3.280   1.446 -0.2454 -0.1530 -0.1492
 1203TIP3    H225169   4.675   3.195   1.531 -0.2383 -0.7296 -0.7295
 1204TIP3   OH225170   5.026   1.733   8.429  0.5663 -0.1910 -0.2763
 1204TIP3    H125171   5.065   1.821   8.436  0.1822  0.1306 -1.8193
 1204TIP3    H225172   5.097   1.674   8.456  0.0426  0.6229  3.3988
 1205TIP3   OH225173   1.784   3.898   1.162 -0.9414  0.1000 -0.1607
 1205TIP3    H125174   1.763   3.831   1.228  0.9645 -0.1216  0.2624
 1205TIP3    H225175   1.857   3.947   1.199  0.7571 -0.5694 -2.4235
 1206TIP3   OH225176   4.918   6.372   1.827 -0.1015  0.1034  0.9405
 1206TIP3    H125177   4.940   6.294   1.776  0.2416  0.3032  0.7804
 1206TIP3    H225178   4.828   6.393   1.803 -0.6211 -0.9535  1.8864
 1207TIP3   OH225179   2.722   1.308   0.845  0.3234 -0.2964 -0.2160
 1207TIP3    H125180   2.718   1.225   0.798 -1.5473  0.9446 -2.4877
 1207TIP3    H225181   2.808   1.344   0.823  0.9713 -1.3846  0.4409
 1208TIP3   OH225182   4.711   5.796   6.791 -0.6840 -0.2472 -0.0731
 1208TIP3    H125183   4.650   5.851   6.842 -2.4837 -0.3129 -1.9978
 1208TIP3    H225184   4.696   5.707   6.824  0.4450  0.0622  1.3610
 1209TIP3   OH225185   4.971   2.020   0.325 -0.2553 -0.3718 -0.5700
 1209TIP3    H125186   4.980   1.925   0.332 -0.8127 -0.3947 -0.1196
 1209TIP3    H225187   4.964   2.050   0.416 -2.0981 -0.1074 -0.7527
 1210TIP3   OH225188   0.013   4.662   0.543  0.0488 -0.1852 -0.9148
 1210TIP3    H125189   0.014   4.691   0.634  0.6164 -1.6622 -0.4074
 1210TIP3    H225190   0.054   4.733   0.494  0.3999  0.3266  0.0955
 1211TIP3   OH225191   4.684   3.314   7.829 -0.0773  0.3392  0.5144
 1211TIP3    H125192   4.609   3.304   7.888 -0.8511  0.2247 -0.4786
 1211TIP3    H225193   4.669   3.251   7.759  2.4207 -1.8696  1.7315
 1212TIP3   OH225194   2.289   0.541   6.828 -0.2009  0.5383 -0.2634
 1212TIP3    H125195   2.363   0.507   6.778 -0.5487  2.1316 -1.9598
 1212TIP3    H225196   2.313   0.632   6.847 -1.7536  1.1238 -0.9726
 1213TIP3   OH225197   1.676   2.344   1.931  0.3727  0.0385 -0.0525
 1213TIP3    H125198   1.719   2.261   1.951 -1.8957 -1.2429 -0.1424
 1213TIP3    H225199   1.627   2.365   2.010  0.6456  1.1178 -0.1647
 1214TIP3   OH225200   4.905   3.361   1.028 -0.2511 -0.7927 -0.2521
 1214TIP3    H125201   4.873   3.447   1.053  2.2685 -0.0623  0.7336
 1214TIP3    H225202   4.953   3.330   1.104  1.3856 -1.7783 -1.6238
 1215TIP3   OH225203   2.469   6.893   8.050  0.7843 -0.1972 -0.0982
 1215TIP3    H125204   2.488   6.927   7.963  2.4682  1.2980  0.7838
 1215TIP3    H225205   2.384   6.930   8.073  0.8211  0.2711 -0.6941
 1216TIP3   OH225206   6.007   6.717   2.182 -0.1416  0.3845  0.5138
 1216TIP3    H125207   6.058   6.790   2.146 -0.0013  0.7331  1.3922
 1216TIP3    H225208   5.976   6.749   2.266 -0.7282 -0.3041  0.5678
 1217TIP3   OH225209   1.291   2.191   0.180 -0.1007  0.0846 -0.1832
 1217TIP3    H125210   1.270   2.159   0.092 -1.5956  0.8569 -0.1372
 1217TIP3    H225211   1.206   2.196   0.224  0.6032 -0.1015  1.2569
 1218TIP3   OH225212   5.694   6.352   1.147  0.2154 -0.1899  0.5063
 1218TIP3    H125213   5.652   6.276   1.187 -0.4759 -0.2953 -0.3702
 1218TIP3    H225214   5.685   6.337   1.053  0.2933  0.8535  0.3206
 1219TIP3   OH225215   2.524   2.772   0.019 -0.1754  0.2669  0.1217
 1219TIP3    H125216   2.482   2.758   0.103  1.1874 -0.6977  0.6796
 1219TIP3    H225217   2.595   2.834   0.038 -0.2148  0.4889 -0.4330
 1220TIP3   OH225218   1.541   2.851   0.191  0.0328 -0.0082  0.1507
 1220TIP3    H125219   1.553   2.841   0.097 -0.9272 -1.6317  0.1662
 1220TIP3    H225220   1.450   2.828   0.206  0.2218  0.0500  1.5029
 1221TIP3   OH225221   2.355   3.765   1.765  0.2109 -0.7430 -0.1934
 1221TIP3    H125222   2.423   3.833   1.761 -1.8851  1.4863 -3.9066
 1221TIP3    H225223   2.299   3.792   1.838  0.3240  0.6376 -0.5763
 1222TIP3   OH225224   6.263   6.320   1.206  0.1728  0.3856  0.3402
 1222TIP3    H125225   6.208   6.393   1.179 -1.7901 -1.1539 -0.0454
 1222TIP3    H225226   6.342   6.327   1.153 -0.2761  1.8253 -0.1628
 1223TIP3   OH225227   0.719   1.044   0.601 -0.5554  0.0492  0.0855
 1223TIP3    H125228   0.775   1.093   0.541 -0.0594  0.5255  0.9209
 1223TIP3    H225229   0.680   1.111   0.658  0.1528 -0.5118  1.2587
 1224TIP3   OH225230   2.569   1.913   0.432 -0.6886 -0.7366  0.0726
 1224TIP3    H125231   2.560   1.818   0.439 -3.7065 -0.4653  1.0543
 1224TIP3    H225232   2.638   1.934   0.495 -1.1657 -2.1304  1.1185
 1225TIP3   OH225233   1.538   2.938   0.482  0.1820  0.1542  0.2998
 1225TIP3    H125234   1.546   2.938   0.386 -0.4735 -0.3456  0.2397
 1225TIP3    H225235   1.595   3.009   0.510  0.4480  0.2545 -0.4591
 1226TIP3   OH225236   1.183   0.114   0.542 -0.1392  0.3666  0.1443
 1226TIP3    H125237   1.187   0.027   0.501  1.6742 -0.1464  1.3210
 1226TIP3    H225238   1.200   0.098   0.634  1.1056  2.0718  0.2430
 1227TIP3   OH225239   4.912   6.655   7.379  0.1762  0.0641 -0.1993
 1227TIP3    H125240   4.955   6.641   7.463 -0.2235 -0.7271 -0.1254
 1227TIP3    H225241   4.923   6.749   7.362  0.1230  0.2581  0.8044
 1228TIP3   OH225242   0.872   1.327   1.745  0.0803  0.3768  0.0951
 1228TIP3    H125243   0.880   1.423   1.749  0.6149  0.3328  0.1427
 1228TIP3    H225244   0.794   1.308   1.797 -0.1687  0.8066 -0.1133
 1229TIP3   OH225245   6.619   4.332   1.040 -0.3876  0.3546  0.1883
 1229TIP3    H125246   6.698   4.314   1.091 -0.2238  0.1337 -0.1308
 1229TIP3    H225247   6.597   4.247   1.002  0.2135  0.7459 -1.1063
 1230TIP3   OH225248   0.488   5.807   7.599  0.2201  0.0938  0.1774
 1230TIP3    H125249   0.511   5.720   7.566  1.4957  1.6969 -3.8187
 1230TIP3    H225250   0.551   5.825   7.669  1.4694 -1.3255 -0.5449
 1231TIP3   OH225251   4.678   5.924   7.664  0.4431 -0.4931 -0.2299
 1231TIP3    H125252   4.718   5.892   7.584 -1.8139  0.1707 -1.7343
 1231TIP3    H225253   4.748   5.970   7.710  2.0682 -1.8715 -1.2361
 1232TIP3   OH225254   2.779   4.125   0.885  0.3011 -0.0032 -0.5202
 1232TIP3    H125255   2.787   4.199   0.945 -0.3389  0.8834 -1.4837
 1232TIP3    H225256   2.853   4.135   0.825  0.4852 -0.4198 -0.3613
 1233TIP3   OH225257   6.366   2.208   6.978 -0.0205  0.1405 -0.0500
 1233TIP3    H125258   6.276   2.241   6.987  0.3978  2.2083 -2.4524
 1233TIP3    H225259   6.413   2.248   7.052 -0.8189 -0.0061  0.5532
 1234TIP3   OH225260   0.992   1.667   8.338 -0.3196  0.7190 -0.1052
 1234TIP3    H125261   1.030   1.624   8.415  0.8853  0.5926 -0.7458
 1234TIP3    H225262   0.932   1.732   8.374 -0.6828 -0.1379  0.9109
 1235TIP3   OH225263   0.499   6.673   7.983  0.4965  0.0213  0.4515
 1235TIP3    H125264   0.415   6.681   8.029  0.0674 -0.6738 -0.1794
 1235TIP3    H225265   0.475   6.661   7.891  1.2890 -0.2180  0.2664
 1236TIP3   OH225266   3.613   1.270   0.060 -1.1390 -0.6689  0.1018
 1236TIP3    H125267   3.698   1.256   0.017 -0.1885  0.0272  1.6836
 1236TIP3    H225268   3.581   1.182   0.078 -1.3117 -0.9678 -1.5082
 1237TIP3   OH225269   3.831   3.122   0.297 -0.4684 -0.3927 -0.1592
 1237TIP3    H125270   3.758   3.107   0.236 -0.5923 -0.4249 -0.0029
 1237TIP3    H225271   3.793   3.106   0.383 -0.6317  0.8343  0.0230
 1238TIP3   OH225272   0.770   6.807   7.197 -0.3583 -0.5455 -0.1981
 1238TIP3    H125273   0.796   6.727   7.244 -1.1898 -0.3333  0.6597
 1238TIP3    H225274   0.741   6.775   7.111 -0.7056 -1.1832  0.1415
 1239TIP3   OH225275   6.890   4.545   1.283  0.3342  0.2705  0.0013
 1239TIP3    H125276   6.813   4.553   1.340 -0.1629  0.9064 -0.7436
 1239TIP3    H225277   6.896   4.451   1.265  0.8391 -0.0226  1.5457
 1240TIP3   OH225278   5.674   6.016   0.720  0.0548 -0.2592 -0.2351
 1240TIP3    H125279   5.584   6.044   0.703 -0.0624  1.0682  2.1460
 1240TIP3    H225280   5.674   5.992   0.813  1.9085 -1.3473 -0.4778
 1241TIP3   OH225281   1.289   5.615   0.040  0.0702 -0.2255  0.2429
 1241TIP3    H125282   1.334   5.660  -0.032  0.8965 -0.9003  0.3176
 1241TIP3    H225283   1.359   5.596   0.103 -0.1455 -2.0656 -0.0246
 1242TIP3   OH225284   3.497   5.928   1.086  0.4660 -0.0365  0.1603
 1242TIP3    H125285   3.440   5.984   1.033 -0.5122 -1.2228 -0.0908
 1242TIP3    H225286   3.447   5.910   1.165  0.8556 -0.3784  0.3363
 1243TIP3   OH225287   3.937   4.745   0.929 -0.0716 -0.1415 -0.3407
 1243TIP3    H125288   3.901   4.825   0.967 -0.1127 -0.7897  1.0774
 1243TIP3    H225289   3.990   4.708   1.000  1.0665 -0.6559 -1.4427
 1244TIP3   OH225290   4.225   2.359   2.104 -0.0414  0.2887 -0.1514
 1244TIP3    H125291   4.178   2.338   2.023 -1.0019 -0.1701  0.5183
 1244TIP3    H225292   4.187   2.302   2.170  2.6927 -1.4939  0.0820
 1245TIP3   OH225293   3.148   5.526   1.578  0.7630  0.7219 -0.1914
 1245TIP3    H125294   3.130   5.484   1.493  0.3650 -0.4507  0.4513
 1245TIP3    H225295   3.063   5.532   1.620  1.1588 -0.1998  0.7857
 1246TIP3   OH225296   0.609   2.211   6.909  0.1850 -0.2573 -0.0440
 1246TIP3    H125297   0.683   2.184   6.855  0.4815 -1.2364  0.8302
 1246TIP3    H225298   0.640   2.202   6.999 -0.1689  1.7146  0.3270
 1247TIP3   OH225299   4.216   2.955   7.147  0.0049  0.1479 -0.0087
 1247TIP3    H125300   4.238   2.897   7.220  0.2296 -0.3333 -0.4471
 1247TIP3    H225301   4.278   3.028   7.155 -0.8589  0.7843  1.0574
 1248TIP3   OH225302   2.827   2.890   1.806 -0.1313 -0.3627  0.0984
 1248TIP3    H125303   2.871   2.946   1.870 -0.2456 -1.1061  0.8354
 1248TIP3    H225304   2.734   2.898   1.828 -0.2590  0.0899 -0.5623
 1249TIP3   OH225305   3.990   1.121   8.356 -0.0841 -0.4204  0.4383
 1249TIP3    H125306   4.049   1.051   8.383 -0.1144 -0.5987  0.0526
 1249TIP3    H225307   4.036   1.166   8.284  0.8903  1.3343  2.0723
 1250TIP3   OH225308   4.674   5.859   1.099 -0.1283 -0.5042  0.3819
 1250TIP3    H125309   4.728   5.786   1.129  0.7790 -0.1524 -0.3394
 1250TIP3    H225310   4.737   5.924   1.068 -0.9517  0.2213  0.1938
 1251TIP3   OH225311   6.035   1.145   2.220 -0.0092  0.7389 -0.3313
 1251TIP3    H125312   6.128   1.137   2.200  0.1487 -0.1397  0.7154
 1251TIP3    H225313   6.021   1.239   2.231  1.6519  0.7079  3.4822
 1252TIP3   OH225314   6.369   1.269   8.237 -0.1408 -0.3077 -0.1455
 1252TIP3    H125315   6.435   1.295   8.171 -1.1361  0.5764 -0.8251
 1252TIP3    H225316   6.392   1.179   8.259  0.0978 -0.7223 -1.8969
 1253TIP3   OH225317   1.136   3.222   1.945  0.0414  0.6669  0.1795
 1253TIP3    H125318   1.158   3.296   2.002  0.6601 -0.0447  0.8886
 1253TIP3    H225319   1.071   3.172   1.995  0.4371  0.1489  0.1856
 1254TIP3   OH225320   2.906   0.933   0.346 -0.0220  0.4078 -0.2915
 1254TIP3    H125321   2.913   1.021   0.309  2.1541 -0.3686 -1.9302
 1254TIP3    H225322   2.867   0.947   0.432  0.8897  3.0433 -0.2081
 1255TIP3   OH225323   1.207   3.440   2.177  0.5415 -0.4868  0.0855
 1255TIP3    H125324   1.131   3.442   2.235 -0.3697 -0.3207 -1.0742
 1255TIP3    H225325   1.226   3.532   2.158  0.8273 -0.5379  0.1277
 1256TIP3   OH225326   3.681   5.279   1.758  0.3470 -0.1135  0.1919
 1256TIP3    H125327   3.653   5.196   1.721 -0.2709 -0.0420  0.4973
 1256TIP3    H225328   3.603   5.315   1.800  1.4976 -1.3308  3.7598
 1257TIP3   OH225329   5.100   3.613   1.159 -0.1431 -0.4829  0.3713
 1257TIP3    H125330   5.068   3.701   1.136 -2.3988 -1.4495 -0.4842
 1257TIP3    H225331   5.163   3.592   1.090 -0.7651 -0.1214 -0.3277
 1258TIP3   OH225332   0.915   5.450   2.706 -0.1614 -0.2237  0.0984
 1258TIP3    H125333   0.835   5.439   2.758  0.3482 -3.3344  0.4148
 1258TIP3    H225334   0.984   5.461   2.771  0.0082 -0.3411 -0.0612
 1259TIP3   OH225335   0.486   5.733   0.682 -0.2916  0.2723 -0.9522
 1259TIP3    H125336   0.512   5.823   0.701 -0.0746  0.1826 -0.8208
 1259TIP3    H225337   0.502   5.723   0.588  1.8790 -0.3364 -0.5761
 1260TIP3   OH225338   1.298   4.991   0.195  0.0205  0.0825  0.0839
 1260TIP3    H125339   1.261   4.987   0.107  1.5597  0.8706 -0.6513
 1260TIP3    H225340   1.392   5.008   0.181  0.7294 -1.9273  1.8206
 1261TIP3   OH225341   3.438   5.483   1.695  0.8029  0.2692 -0.0161
 1261TIP3    H125342   3.343   5.490   1.691  0.9648  3.6289 -1.5302
 1261TIP3    H225343   3.463   5.537   1.770  1.5294 -1.7897  1.3001
 1262TIP3   OH225344   1.530   4.846   2.349  0.2320  0.2890 -0.6818
 1262TIP3    H125345   1.473   4.879   2.418 -1.1061 -0.3120 -1.4711
 1262TIP3    H225346   1.551   4.757   2.376  2.2554  1.0252  0.4599
 1263TIP3   OH225347   3.799   5.621   0.011 -0.3938  0.2020 -0.2411
 1263TIP3    H125348   3.770   5.545  -0.038  0.3914  0.3580 -0.9857
 1263TIP3    H225349   3.892   5.629  -0.010  0.2324 -0.3034  2.0708
 1264TIP3   OH225350   0.609   2.181   8.261  0.5405  0.0452 -0.4253
 1264TIP3    H125351   0.523   2.215   8.285  0.9396  0.4444  0.5084
 1264TIP3    H225352   0.591   2.108   8.202 -0.4533 -0.2158  0.1730
 1265TIP3   OH225353   4.341   4.538   2.598  0.3819 -0.6986 -0.1064
 1265TIP3    H125354   4.391   4.461   2.626 -0.4202 -1.2561 -0.1650
 1265TIP3    H225355   4.288   4.561   2.674 -0.0768 -0.7827 -0.3979
 1266TIP3   OH225356   6.037   6.119   7.157 -0.7541  0.1183  0.1352
 1266TIP3    H125357   5.966   6.160   7.206 -0.8918  0.6980 -0.5387
 1266TIP3    H225358   6.063   6.184   7.092 -0.1098 -0.3753 -0.1203
 1267TIP3   OH225359   2.192   4.615   8.185 -0.0166 -1.2818  0.2904
 1267TIP3    H125360   2.139   4.536   8.187 -0.1579 -1.1752  0.9007
 1267TIP3    H225361   2.279   4.586   8.211 -0.2583 -1.1059  1.3673
 1268TIP3   OH225362   2.986   1.713   6.957  0.6544 -0.7977 -0.1995
 1268TIP3    H125363   2.932   1.724   7.036 -1.1230 -0.1768 -1.4451
 1268TIP3    H225364   2.960   1.628   6.921  1.7598 -1.2667  0.0846
 1269TIP3   OH225365   0.740   1.701   8.144  0.2857  0.0793  0.3008
 1269TIP3    H125366   0.823   1.707   8.097  1.1367 -0.2866  1.6632
 1269TIP3    H225367   0.760   1.737   8.231 -1.4959  1.7466  0.0876
 1270TIP3   OH225368   3.185   4.268   0.141  0.1046 -0.2039  0.3326
 1270TIP3    H125369   3.120   4.253   0.073 -0.9428  1.3357  0.9259
 1270TIP3    H225370   3.205   4.181   0.175  1.1571 -1.0836 -2.3412
 1271TIP3   OH225371   2.358   5.336   7.160  0.1419  0.1146 -0.0802
 1271TIP3    H125372   2.274   5.333   7.116  0.5667  0.1826 -0.9202
 1271TIP3    H225373   2.411   5.269   7.116  1.2192  1.5400 -1.0584
 1272TIP3   OH225374   0.624   2.759   8.070  0.4257  0.1169 -0.2680
 1272TIP3    H125375   0.614   2.844   8.028 -0.5464  1.1904  2.0180
 1272TIP3    H225376   0.716   2.754   8.094  0.6750  0.1093 -1.1770
 1273TIP3   OH225377   3.543   3.053   2.286  0.5093 -0.5091  0.4982
 1273TIP3    H125378   3.528   3.025   2.376  0.0669 -1.2234  0.2132
 1273TIP3    H225379   3.609   3.123   2.293  0.9738 -1.0096  1.3121
 1274TIP3   OH225380   5.907   5.931   1.044  0.4624 -0.0829 -0.1823
 1274TIP3    H125381   5.886   5.997   0.978 -0.7775  0.2323  0.4909
 1274TIP3    H225382   5.847   5.950   1.117  0.1966 -1.8397  0.1019
 1275TIP3   OH225383   5.198   3.650   0.098  1.1432 -0.4006  0.6655
 1275TIP3    H125384   5.183   3.743   0.080  1.9790 -0.6404 -1.6092
 1275TIP3    H225385   5.264   3.649   0.167 -0.3503  0.6405  2.1912
 1276TIP3   OH225386   6.516   1.706   8.488 -0.7122 -0.4655 -0.1377
 1276TIP3    H125387   6.449   1.669   8.431 -0.5852 -0.2496 -0.4279
 1276TIP3    H225388   6.534   1.792   8.452 -2.9641  1.0971  2.0780
 1277TIP3   OH225389   4.445   5.391   2.628 -0.1246  0.3344 -0.2479
 1277TIP3    H125390   4.496   5.455   2.676  1.2916 -0.7718 -0.2220
 1277TIP3    H225391   4.509   5.345   2.573 -1.4167  0.3580 -1.8699
 1278TIP3   OH225392   6.421   4.040   0.519 -0.4354 -0.0989  0.2876
 1278TIP3    H125393   6.330   4.016   0.537 -0.1505 -0.7892  0.8150
 1278TIP3    H225394   6.437   4.117   0.573 -0.4242 -0.5352  0.9162
 1279TIP3   OH225395   0.473   4.979   1.252  0.5287 -0.1560  0.0095
 1279TIP3    H125396   0.513   4.922   1.187 -1.0250 -0.7884 -0.4541
 1279TIP3    H225397   0.462   4.924   1.329  2.6898  0.6881  1.0033
 1280TIP3   OH225398   0.680   6.654   3.086  0.4322  0.4408 -0.1778
 1280TIP3    H125399   0.728   6.700   3.017  0.3031  1.6651  0.5141
 1280TIP3    H225400   0.737   6.582   3.111  2.6557  2.6731  1.6108
 1281TIP3   OH225401   0.938   5.888   1.250  0.7852 -0.2028 -0.2470
 1281TIP3    H125402   0.886   5.813   1.280  1.6462  0.2079  2.5595
 1281TIP3    H225403   1.014   5.849   1.207  0.0324 -0.8668 -1.0161
 1282TIP3   OH225404   5.178   5.456   7.688 -0.4378 -0.4736 -0.1536
 1282TIP3    H125405   5.195   5.367   7.719 -0.2461  0.1758  1.6925
 1282TIP3    H225406   5.261   5.502   7.698 -0.8628  0.2516  0.1308
 1283TIP3   OH225407   6.128   5.047   2.409  0.0823  0.1811 -0.3469
 1283TIP3    H125408   6.072   4.972   2.392 -0.3472  0.2568  0.6612
 1283TIP3    H225409   6.091   5.087   2.488  1.1969  0.5746 -0.0054
 1284TIP3   OH225410   5.551   1.972   8.271  0.1206 -0.1118  0.0689
 1284TIP3    H125411   5.627   1.976   8.330 -0.4087 -0.7607  0.8231
 1284TIP3    H225412   5.548   1.881   8.241 -0.1154  0.0072 -0.2723
 1285TIP3   OH225413   3.780   3.966   0.842 -0.3128 -0.1467 -0.0730
 1285TIP3    H125414   3.808   3.949   0.932 -2.9768 -1.1745  0.6714
 1285TIP3    H225415   3.754   4.059   0.843  2.4709  0.7297 -0.6958
 1286TIP3   OH225416   3.334   1.113   2.204  0.2091 -0.2656 -0.3214
 1286TIP3    H125417   3.285   1.081   2.280  0.6443 -0.0206  0.0721
 1286TIP3    H225418   3.393   1.179   2.240  1.7469 -1.4656 -0.5669
 1287TIP3   OH225419   5.811   1.197   2.456 -0.2358 -0.3526 -0.0913
 1287TIP3    H125420   5.870   1.175   2.528  0.3333 -0.3532 -0.5530
 1287TIP3    H225421   5.809   1.292   2.454  0.7131 -0.3338 -0.8401
 1288TIP3   OH225422   3.543   3.356   7.630  0.1671  0.2928 -0.0789
 1288TIP3    H125423   3.573   3.292   7.695  0.0850  0.8828  0.5583
 1288TIP3    H225424   3.548   3.310   7.546  0.8619 -0.2860  0.2709
 1289TIP3   OH225425   4.954   4.866   1.655  0.3193  0.4660 -0.7573
 1289TIP3    H125426   5.045   4.892   1.669  0.5536 -0.7362  0.0054
 1289TIP3    H225427   4.955   4.771   1.655 -1.2079  0.3831  1.2583
 1290TIP3   OH225428   6.206   2.318   0.809 -0.3193  0.5187  0.5318
 1290TIP3    H125429   6.135   2.309   0.872 -0.9329 -1.4133 -0.3520
 1290TIP3    H225430   6.197   2.242   0.752  1.4168  1.1538 -0.6767
 1291TIP3   OH225431   1.012   2.391   2.457  0.1456  0.6116 -0.0854
 1291TIP3    H125432   0.926   2.357   2.481 -0.3109  1.5475 -0.3568
 1291TIP3    H225433   1.048   2.425   2.539 -0.0878  0.9521 -0.1227
 1292TIP3   OH225434   3.329   6.064   1.260  0.0562 -0.5072  0.0875
 1292TIP3    H125435   3.260   6.125   1.234  0.7305  1.3621  2.3287
 1292TIP3    H225436   3.401   6.120   1.289  1.3595 -2.4051  0.7201
 1293TIP3   OH225437   3.232   4.111   1.758 -0.4933  0.2909 -0.1184
 1293TIP3    H125438   3.326   4.106   1.776 -0.9504  0.5169  2.9767
 1293TIP3    H225439   3.211   4.027   1.715  1.0730  0.2061 -0.7589
 1294TIP3   OH225440   1.702   1.851   8.035 -0.2276 -0.4433  0.4460
 1294TIP3    H125441   1.787   1.812   8.013 -0.1905  0.5237 -1.2713
 1294TIP3    H225442   1.641   1.777   8.030  0.0898 -0.6502 -1.2212
 1295TIP3   OH225443   1.139   2.492   8.192  0.0085  0.0936 -0.1539
 1295TIP3    H125444   1.156   2.569   8.246  0.1420 -0.5234  0.7115
 1295TIP3    H225445   1.048   2.469   8.211 -0.4925  0.8525 -1.4940
 1296TIP3   OH225446   5.221   6.835   0.837  0.4261  0.1489 -0.1428
 1296TIP3    H125447   5.160   6.907   0.819 -1.6951 -1.0701  1.6232
 1296TIP3    H225448   5.306   6.867   0.808 -0.6439  2.8801 -0.5094
 1297TIP3   OH225449   3.351   1.613   3.213  0.0716 -0.3279  0.3801
 1297TIP3    H125450   3.337   1.683   3.277  0.2549 -1.0267  1.1976
 1297TIP3    H225451   3.446   1.599   3.214  0.1568  0.1101 -0.5450
 1298TIP3   OH225452   3.432   4.252   6.767  0.1359  0.0525  0.4620
 1298TIP3    H125453   3.412   4.276   6.857 -1.9574 -1.0450  0.3429
 1298TIP3    H225454   3.377   4.308   6.713 -0.4409 -0.9532 -0.0233
 1299TIP3   OH225455   5.709   3.007   1.571 -0.0609 -0.0635 -0.2005
 1299TIP3    H125456   5.649   2.941   1.537 -0.0305 -0.5421  0.6289
 1299TIP3    H225457   5.786   2.957   1.598 -0.2594  0.2276  0.9512
 1300TIP3   OH225458   6.126   3.415   8.391  0.2764  0.3748 -0.7450
 1300TIP3    H125459   6.188   3.382   8.457 -0.5554  0.1067 -0.0798
 1300TIP3    H225460   6.126   3.510   8.404  1.1570  0.4758 -1.3164
 1301TIP3   OH225461   0.919   3.125   8.166  0.1843 -0.2330  0.0023
 1301TIP3    H125462   0.936   3.208   8.122  1.7589 -0.3848  0.2687
 1301TIP3    H225463   0.855   3.080   8.110 -0.6132  1.1054 -0.1883
 1302TIP3   OH225464   4.499   1.166   7.645 -0.1770 -0.6154  0.1298
 1302TIP3    H125465   4.592   1.144   7.640  0.7226  2.9183 -1.0119
 1302TIP3    H225466   4.457   1.108   7.581  1.8891  0.3717 -2.2706
 1303TIP3   OH225467   6.394   1.175   0.068 -0.3443 -0.7013 -0.3819
 1303TIP3    H125468   6.313   1.221   0.051 -0.4757  0.5917  2.9190
 1303TIP3    H225469   6.367   1.093   0.109 -0.1116  0.5042  2.3967
 1304TIP3   OH225470   3.354   0.970   3.053 -0.1676 -0.3823 -0.5805
 1304TIP3    H125471   3.295   0.930   3.116 -2.6631 -0.3666 -2.7201
 1304TIP3    H225472   3.414   0.900   3.028  1.2695 -0.2341  2.0879
 1305TIP3   OH225473   6.194   3.055   7.179 -0.5958 -0.0888 -0.9195
 1305TIP3    H125474   6.248   3.093   7.248 -0.9825  0.9809 -1.1892
 1305TIP3    H225475   6.217   3.105   7.101 -0.7569 -0.7518 -1.4033
 1306TIP3   OH225476   1.372   3.642   1.936  0.0303 -0.5483 -0.2660
 1306TIP3    H125477   1.345   3.695   2.011  2.5214 -0.1314  0.4231
 1306TIP3    H225478   1.412   3.704   1.876 -0.6822 -1.1001 -1.3446
 1307TIP3   OH225479   6.080   1.021   0.298 -0.0930 -0.2452 -0.3269
 1307TIP3    H125480   6.032   1.100   0.276  1.5693  1.8066  2.6751
 1307TIP3    H225481   6.148   1.014   0.231  0.6346  1.7942  0.1231
 1308TIP3   OH225482   3.460   2.266   7.303 -0.8400 -0.1863  0.3073
 1308TIP3    H125483   3.410   2.347   7.307  0.9288  1.0159 -0.5467
 1308TIP3    H225484   3.550   2.292   7.321 -0.2635 -2.0208  0.3168
 1309TIP3   OH225485   1.598   5.631   2.245 -0.1562  0.5309  0.2649
 1309TIP3    H125486   1.509   5.650   2.215 -0.4834  1.7014  1.8007
 1309TIP3    H225487   1.631   5.715   2.276  0.9357 -0.1565  1.0599
 1310TIP3   OH225488   2.249   6.341   0.758 -0.3244 -0.4849 -0.2209
 1310TIP3    H125489   2.194   6.362   0.834  0.8001  0.8989  0.2408
 1310TIP3    H225490   2.257   6.245   0.760 -0.5719 -0.4966  1.2214
 1311TIP3   OH225491   5.207   2.306   0.291 -0.4098  0.1375  0.1585
 1311TIP3    H125492   5.121   2.347   0.300  0.3877  2.6529 -2.2726
 1311TIP3    H225493   5.267   2.364   0.337  0.2072 -0.8576  0.6495
 1312TIP3   OH225494   2.099   0.935   7.979 -0.0281 -0.4070 -0.0440
 1312TIP3    H125495   2.157   0.941   7.903 -1.4909  1.6680 -1.1037
 1312TIP3    H225496   2.069   0.843   7.979 -0.2213 -0.4053 -2.2035
 1313TIP3   OH225497   3.893   0.556   7.462 -0.1774 -0.4557  0.3482
 1313TIP3    H125498   3.820   0.521   7.514 -0.3827  1.5218  1.4887
 1313TIP3    H225499   3.951   0.595   7.527  0.3576  0.7085 -0.7942
 1314TIP3   OH225500   0.567   2.984   0.042 -0.7015 -0.7012 -0.2114
 1314TIP3    H125501   0.566   2.992   0.137 -2.2874  0.0982 -0.2702
 1314TIP3    H225502   0.501   2.918   0.022  1.1297 -2.5067 -0.6845
 1315TIP3   OH225503   6.821   1.367   2.184 -0.3494 -0.2445 -0.6479
 1315TIP3    H125504   6.865   1.300   2.237 -0.7573 -0.1879 -0.2338
 1315TIP3    H225505   6.864   1.362   2.099 -0.5553 -1.2193 -0.7055
 1316TIP3   OH225506   1.155   4.643   7.486  0.2875 -0.4315 -0.2538
 1316TIP3    H125507   1.175   4.652   7.393 -0.3117 -1.6670 -0.5176
 1316TIP3    H225508   1.127   4.552   7.496 -2.0339  0.3329  0.6750
 1317TIP3   OH225509   1.641   4.278   1.102 -0.1628  0.1228 -0.1368
 1317TIP3    H125510   1.548   4.288   1.122  0.1642 -2.1339  3.3257
 1317TIP3    H225511   1.648   4.193   1.058  0.3397 -0.1900  0.5309
 1318TIP3   OH225512   3.414   1.346   1.753  0.2236 -0.1879 -0.2969
 1318TIP3    H125513   3.387   1.436   1.775 -0.8334 -0.3766 -0.7641
 1318TIP3    H225514   3.498   1.335   1.797 -1.2394 -0.1662  2.7732
 1319TIP3   OH225515   5.691   4.454   2.759 -0.2355 -0.2985  0.5595
 1319TIP3    H125516   5.675   4.373   2.710  0.2267 -0.6354  0.9588
 1319TIP3    H225517   5.664   4.524   2.699 -1.4146 -0.7712  0.5183
 1320TIP3   OH225518   4.633   4.677   2.200 -0.1149 -0.0717  1.3844
 1320TIP3    H125519   4.671   4.714   2.121 -1.7481 -1.1595  0.0215
 1320TIP3    H225520   4.613   4.753   2.256  1.4086  0.6746  0.9422
 1321TIP3   OH225521   0.036   3.292   8.229 -0.2823  0.2840 -0.0027
 1321TIP3    H125522  -0.045   3.293   8.281 -0.1129 -1.8601  0.3928
 1321TIP3    H225523   0.098   3.342   8.282 -0.2496 -1.4342  1.7139
 1322TIP3   OH225524   2.303   2.542   3.013 -0.4611 -0.8487  0.5146
 1322TIP3    H125525   2.219   2.497   3.008 -1.0980  0.3584 -0.2303
 1322TIP3    H225526   2.280   2.634   3.028  0.5988 -0.1537 -1.6783
 1323TIP3   OH225527   1.872   5.062   7.848  0.2103 -0.0405 -0.2275
 1323TIP3    H125528   1.880   5.051   7.753  2.2656  0.7511 -0.2070
 1323TIP3    H225529   1.778   5.069   7.864 -0.3121 -2.0445 -1.9627
 1324TIP3   OH225530   3.326   1.383   3.083 -0.5202 -0.3480 -0.3443
 1324TIP3    H125531   3.401   1.323   3.086  0.0689  0.2759 -1.6302
 1324TIP3    H225532   3.360   1.466   3.118 -0.8564 -0.2952 -0.1375
 1325TIP3   OH225533   6.547   5.378   2.195 -0.3906  0.7531 -0.0326
 1325TIP3    H125534   6.556   5.355   2.103  1.4694 -1.0074  0.5124
 1325TIP3    H225535   6.576   5.469   2.200 -3.0300  1.7861 -1.5027
 1326TIP3   OH225536   1.077   2.944   0.708  0.0090  0.0973  0.1854
 1326TIP3    H125537   1.054   2.942   0.801 -0.8168 -2.8745  0.0276
 1326TIP3    H225538   1.033   3.021   0.674 -0.8583  0.4566  1.9834
 1327TIP3   OH225539   3.854   5.693   0.484  0.1769 -0.3466  0.2039
 1327TIP3    H125540   3.884   5.602   0.473  0.1780 -0.1547 -1.8060
 1327TIP3    H225541   3.767   5.685   0.522  0.2498 -1.1770  0.2262
 1328TIP3   OH225542   6.697   1.548   0.011 -0.9128  0.1834 -0.7176
 1328TIP3    H125543   6.640   1.615  -0.026  0.2025  1.1920 -0.6736
 1328TIP3    H225544   6.772   1.544  -0.049  0.3822  1.0360  0.7439
 1329TIP3   OH225545   2.523   2.571   1.380  0.4336 -0.6730  0.9859
 1329TIP3    H125546   2.462   2.586   1.453 -0.3661  1.0290  0.0015
 1329TIP3    H225547   2.529   2.475   1.375  0.7542 -0.8636  3.4584
 1330TIP3   OH225548   4.340   5.470   8.390  0.0344  0.0609 -0.7074
 1330TIP3    H125549   4.401   5.534   8.355  0.3535  1.4594  2.0967
 1330TIP3    H225550   4.395   5.397   8.419  0.2161  0.5489  0.2137
 1331TIP3   OH225551   4.830   0.503   1.911  0.2876  0.2282  0.0750
 1331TIP3    H125552   4.810   0.426   1.857 -2.2929  0.9045 -0.0549
 1331TIP3    H225553   4.752   0.516   1.965  1.0132  2.2305  0.7377
 1332TIP3   OH225554   6.094   5.618   0.816  0.1226  0.4498 -0.5928
 1332TIP3    H125555   6.012   5.570   0.832 -0.6118  1.6841 -0.5283
 1332TIP3    H225556   6.106   5.672   0.895  1.7250 -0.6747 -0.0075
 1333TIP3   OH225557   4.066   1.426   2.142  0.4303 -0.4629 -0.4500
 1333TIP3    H125558   4.138   1.370   2.113  0.6917 -0.6932  0.5984
 1333TIP3    H225559   4.092   1.455   2.229 -0.4061  0.0683 -0.3675
 1334TIP3   OH225560   2.619   4.006   2.315  0.4232  0.4912  0.0524
 1334TIP3    H125561   2.615   3.988   2.409 -1.1280  0.1557 -0.0598
 1334TIP3    H225562   2.674   4.084   2.309  4.0482 -1.7161  0.8668
 1335TIP3   OH225563   1.897   0.269   1.716  0.5584  0.1798 -0.5460
 1335TIP3    H125564   1.864   0.312   1.795  0.7668 -1.3599  0.4028
 1335TIP3    H225565   1.834   0.199   1.699  1.4927 -0.6287 -0.7120
 1336TIP3   OH225566   4.748   3.753   7.638  0.5345 -0.4701 -0.2733
 1336TIP3    H125567   4.810   3.812   7.681  1.2330 -1.3410 -0.0473
 1336TIP3    H225568   4.793   3.669   7.635 -0.3838 -0.9657 -0.7127
 1337TIP3   OH225569   5.111   3.348   0.816 -0.0051  0.3197  0.1636
 1337TIP3    H125570   5.035   3.337   0.874  1.9884 -0.8526  2.7998
 1337TIP3    H225571   5.126   3.442   0.813 -1.4246  0.5452 -0.2182
 1338TIP3   OH225572   2.125   3.473   0.738 -0.3790  0.0527  0.6906
 1338TIP3    H125573   2.050   3.531   0.754 -0.8741 -0.8695  1.8292
 1338TIP3    H225574   2.089   3.400   0.688 -0.0077  0.1063  0.3356
 1339TIP3   OH225575   6.227   1.158   6.886  0.0839 -0.1813 -0.2265
 1339TIP3    H125576   6.236   1.247   6.920 -0.7795 -0.6389  1.3002
 1339TIP3    H225577   6.205   1.170   6.794 -1.4516  1.2561  0.2713
 1340TIP3   OH225578   1.533   2.713   0.656  0.8336  0.0769 -0.6841
 1340TIP3    H125579   1.478   2.649   0.613  2.2340 -0.7062 -1.3831
 1340TIP3    H225580   1.535   2.788   0.595  0.9614 -0.1048 -0.9047
 1341TIP3   OH225581   3.210   6.625   0.828 -0.5458  0.3625 -0.1406
 1341TIP3    H125582   3.141   6.655   0.888 -1.1767 -2.3661  0.6293
 1341TIP3    H225583   3.163   6.592   0.752 -0.1809 -1.6894  0.4629
 1342TIP3   OH225584   3.876   4.681   6.987 -0.6687 -0.0548 -0.3456
 1342TIP3    H125585   3.804   4.641   7.035  1.0188 -3.5715 -0.4216
 1342TIP3    H225586   3.941   4.702   7.054 -1.9435  4.0133 -0.1507
 1343TIP3   OH225587   2.209   4.120   8.332  0.1386  0.3475  0.2465
 1343TIP3    H125588   2.257   4.159   8.405 -0.5551  1.1784  0.2782
 1343TIP3    H225589   2.263   4.139   8.255 -0.5584  2.1592  0.1388
 1344TIP3   OH225590   1.412   5.170   8.530 -0.3579  0.1205 -0.1089
 1344TIP3    H125591   1.431   5.217   8.610 -0.8438  0.4185 -0.1678
 1344TIP3    H225592   1.479   5.199   8.468 -0.8675  1.0127 -0.2558
 1345TIP3   OH225593   6.284   5.260   1.312 -0.8976  0.2622 -0.0949
 1345TIP3    H125594   6.230   5.328   1.271 -1.0894  0.7087  0.8650
 1345TIP3    H225595   6.355   5.246   1.250 -1.0581  1.0850 -0.4819
 1346TIP3   OH225596   0.917   4.493   8.003  0.1894 -0.4217  0.2544
 1346TIP3    H125597   0.968   4.506   7.924 -1.2298 -1.1099 -0.8156
 1346TIP3    H225598   0.948   4.409   8.038 -0.7301 -1.2607 -0.8535
 1347TIP3   OH225599   5.854   2.628   2.122  0.3536 -0.1133  0.2655
 1347TIP3    H125600   5.884   2.711   2.160  0.6830 -0.8462  1.6738
 1347TIP3    H225601   5.759   2.631   2.131  0.4217 -0.2833  1.2379
 1348TIP3   OH225602   5.314   3.030   1.134 -0.0437  0.6045 -0.1507
 1348TIP3    H125603   5.242   3.030   1.071 -1.3785 -0.9778  1.2526
 1348TIP3    H225604   5.319   3.120   1.165 -2.3457  0.5340  0.6360
 1349TIP3   OH225605   6.536   3.777   8.317  0.2972  0.3514  0.0261
 1349TIP3    H125606   6.503   3.690   8.339 -1.0704  0.7774 -0.2442
 1349TIP3    H225607   6.564   3.814   8.401  0.5493 -0.2009  0.1903
 1350TIP3   OH225608   6.306   0.920   6.578 -0.3120 -0.9576 -0.4247
 1350TIP3    H125609   6.243   0.953   6.514 -0.1701  0.8251  0.3031
 1350TIP3    H225610   6.382   0.977   6.570  0.7401 -2.3067 -0.4170
 1351TIP3   OH225611   4.982   5.350   7.921 -0.9716 -0.0268 -0.0589
 1351TIP3    H125612   4.930   5.277   7.955 -0.7937  0.9456  2.5358
 1351TIP3    H225613   5.038   5.311   7.854 -2.5373 -1.7811 -0.4143
 1352TIP3   OH225614   4.991   4.743   7.822  0.2106 -0.0183 -0.5489
 1352TIP3    H125615   4.898   4.751   7.842  0.2024 -2.4996  0.7491
 1352TIP3    H225616   5.031   4.819   7.864 -0.7712 -1.1340  2.6847
 1353TIP3   OH225617   4.366   4.162   2.756  0.3899  0.1588  0.7926
 1353TIP3    H125618   4.395   4.224   2.689 -1.1492 -1.7395 -1.8382
 1353TIP3    H225619   4.280   4.194   2.783 -0.1106 -0.3913 -0.0799
 1354TIP3   OH225620   5.992   0.950   7.155 -0.3428 -0.3576  0.0516
 1354TIP3    H125621   5.905   0.987   7.171  0.0728  1.4326 -1.4708
 1354TIP3    H225622   5.987   0.916   7.065  0.9486  1.2231 -0.6626
 1355TIP3   OH225623   6.290   0.084   2.555  1.1255  0.1182  1.0288
 1355TIP3    H125624   6.216   0.143   2.547  2.1961  1.7824  2.5295
 1355TIP3    H225625   6.253  -0.004   2.544 -0.5287  1.0206 -1.1433
 1356TIP3   OH225626   6.297   4.108   7.455  0.5250  0.4788 -0.1075
 1356TIP3    H125627   6.237   4.092   7.383  0.3499  0.6691 -0.0045
 1356TIP3    H225628   6.271   4.193   7.490 -0.3471 -0.2519  1.1055
 1357TIP3   OH225629   1.357   0.926   6.763  0.5634  0.1015 -0.8747
 1357TIP3    H125630   1.436   0.933   6.817  0.6745 -0.0039 -1.0239
 1357TIP3    H225631   1.321   0.839   6.784 -0.1353  0.5883  0.0422
 1358TIP3   OH225632   2.354   1.341   8.506  0.1403  0.1457  0.6209
 1358TIP3    H125633   2.327   1.252   8.528 -0.8812  0.4573  0.6397
 1358TIP3    H225634   2.286   1.397   8.543  0.0190  0.8563 -0.6368
 1359TIP3   OH225635   0.083   1.702   2.733 -0.8635  0.1044  0.0839
 1359TIP3    H125636   0.109   1.783   2.777  1.2581  0.3841 -1.5088
 1359TIP3    H225637   0.006   1.727   2.681 -0.3516  1.0965 -0.2423
 1360TIP3   OH225638   4.529   4.521   7.612  0.0857  0.0545  0.1682
 1360TIP3    H125639   4.541   4.457   7.682 -1.8166 -0.0762  0.4400
 1360TIP3    H225640   4.558   4.476   7.533  2.6234  0.3355  0.8569
 1361TIP3   OH225641   0.500   6.369   7.929 -0.3945  0.1437 -0.2388
 1361TIP3    H125642   0.566   6.377   7.859 -0.7038 -0.2430 -0.5784
 1361TIP3    H225643   0.543   6.315   7.996  0.3774  1.5647  0.4642
 1362TIP3   OH225644   4.346   0.930   1.171 -0.2249  0.7183 -0.2333
 1362TIP3    H125645   4.297   0.940   1.253  0.1430 -0.5213  0.1611
 1362TIP3    H225646   4.306   0.854   1.128  1.2739 -0.2729  0.0651
 1363TIP3   OH225647   0.820   0.883   0.012  0.5395 -0.3750 -0.1840
 1363TIP3    H125648   0.834   0.918  -0.076  0.3114  1.1050  0.3325
 1363TIP3    H225649   0.753   0.815   0.000  0.4030 -0.1003 -1.1322
 1364TIP3   OH225650   6.099   1.444   7.825  0.2232  0.0223 -0.0451
 1364TIP3    H125651   6.060   1.422   7.740 -1.7803  0.7059  0.6148
 1364TIP3    H225652   6.192   1.457   7.807 -0.1322  0.0268 -2.1057
 1365TIP3   OH225653   0.619   0.840   8.064  0.0805 -0.0775  0.2055
 1365TIP3    H125654   0.665   0.756   8.061 -2.6154 -1.7079 -1.7014
 1365TIP3    H225655   0.686   0.906   8.049  1.8660 -2.2454 -2.3551
 1366TIP3   OH225656   6.614   1.697   8.025  0.0896  0.1796 -0.2074
 1366TIP3    H125657   6.687   1.649   7.985 -1.2836 -1.1902 -1.1808
 1366TIP3    H225658   6.625   1.682   8.119  1.6485  0.9121 -0.2342
 1367TIP3   OH225659   4.682   2.111   0.927 -0.2866  0.2064  0.2319
 1367TIP3    H125660   4.684   2.179   0.860 -1.1034  0.5824  0.5788
 1367TIP3    H225661   4.755   2.053   0.904 -0.5061  0.3609 -0.9396
 1368TIP3   OH225662   5.824   0.020   8.117 -0.2754  0.1348  0.2867
 1368TIP3    H125663   5.910   0.059   8.102 -1.0189  1.2423 -1.3682
 1368TIP3    H225664   5.815  -0.046   8.049 -0.5974 -0.2499  0.6980
 1369TIP3   OH225665   1.347   0.935   7.822  0.0617  0.0089  0.1837
 1369TIP3    H125666   1.346   0.842   7.801  2.6749  0.1978 -1.2946
 1369TIP3    H225667   1.393   0.941   7.906 -0.6394 -0.0493  0.5785
 1370TIP3   OH225668   3.696   1.113   7.924  0.6293  0.3904  0.3179
 1370TIP3    H125669   3.750   1.035   7.940 -1.0750 -0.6868  1.1310
 1370TIP3    H225670   3.745   1.185   7.965  0.5043 -0.8825  2.8635
 1371TIP3   OH225671   6.402   4.196   2.016  0.2987  0.0892  0.2253
 1371TIP3    H125672   6.383   4.124   1.956  1.2920  1.1138 -1.3982
 1371TIP3    H225673   6.332   4.260   2.001  1.6735  1.2876 -1.4903
 1372TIP3   OH225674   3.228   0.095   6.931  0.0869 -0.8324 -0.3901
 1372TIP3    H125675   3.248   0.189   6.933  0.3252 -0.8406 -1.4414
 1372TIP3    H225676   3.138   0.091   6.900 -0.0690 -0.9428  0.0713
 1373TIP3   OH225677   4.582   0.169   0.405 -0.0060 -0.1505 -0.1792
 1373TIP3    H125678   4.574   0.254   0.448  0.8118  0.1548 -0.6013
 1373TIP3    H225679   4.657   0.179   0.346 -0.4803 -0.8710 -0.9246
 1374TIP3   OH225680   2.706   6.169   6.903 -0.1816  0.5787 -0.1206
 1374TIP3    H125681   2.666   6.092   6.862  0.7461 -0.1436  0.2702
 1374TIP3    H225682   2.706   6.235   6.834 -2.4588  0.8012  0.0062
 1375TIP3   OH225683   2.708   6.087   0.513 -0.0244  0.4347 -0.2569
 1375TIP3    H125684   2.637   6.112   0.453  0.9108  1.3874 -1.0068
 1375TIP3    H225685   2.720   5.993   0.497 -0.6847  0.4002 -0.5943
 1376TIP3   OH225686   0.127   4.188   1.880 -0.1282 -0.1872  0.3308
 1376TIP3    H125687   0.199   4.191   1.943  1.6964  1.0485 -1.6767
 1376TIP3    H225688   0.049   4.183   1.934  1.3983 -1.0948  2.6417
 1377TIP3   OH225689   6.121   4.713   0.890  0.5358  0.4611  0.6438
 1377TIP3    H125690   6.201   4.694   0.939  0.3734 -1.0347  0.3942
 1377TIP3    H225691   6.053   4.723   0.957  0.4808 -0.7178  0.7854
 1378TIP3   OH225692   5.861   6.083   7.986 -0.2171 -0.2342  0.4318
 1378TIP3    H125693   5.770   6.058   7.973  0.1900 -1.1220 -0.8930
 1378TIP3    H225694   5.857   6.173   8.019 -1.5721 -0.4173  0.8210
 1379TIP3   OH225695   0.148   1.445   2.623 -0.4555  0.2092  0.4773
 1379TIP3    H125696   0.150   1.541   2.618 -0.8551  0.2470  1.0662
 1379TIP3    H225697   0.192   1.417   2.543  0.9306  0.8984  0.9574
 1380TIP3   OH225698   4.816   2.708   2.017  0.4961  0.3441 -0.0554
 1380TIP3    H125699   4.854   2.754   1.942  2.7607 -1.4446 -0.1234
 1380TIP3    H225700   4.875   2.728   2.089  0.3680 -0.7867  0.3832
 1381TIP3   OH225701   0.997   4.542   1.069 -0.3046 -0.2434 -0.1002
 1381TIP3    H125702   0.913   4.496   1.067  0.5809 -2.1676  1.7243
 1381TIP3    H225703   0.975   4.634   1.060 -2.8135 -0.5257  1.9216
 1382TIP3   OH225704   1.408   3.732   8.287 -0.2912 -0.1202  0.5006
 1382TIP3    H125705   1.489   3.690   8.257  0.6114  1.4886  0.5184
 1382TIP3    H225706   1.404   3.813   8.236 -1.1044  0.5312  1.5632
 1383TIP3   OH225707   4.150   1.474   2.402 -0.2776 -0.0875 -0.2660
 1383TIP3    H125708   4.077   1.516   2.447  0.5759  0.2328  0.8593
 1383TIP3    H225709   4.186   1.413   2.466  0.6104 -0.0321 -0.7034
 1384TIP3   OH225710   4.631   0.292   8.336  0.4208 -0.3592  0.1904
 1384TIP3    H125711   4.568   0.224   8.312 -1.3115  1.3081 -0.2497
 1384TIP3    H225712   4.632   0.292   8.431  1.4447 -1.8409  0.2070
 1385TIP3   OH225713   0.148   3.845   2.154  0.3394 -0.5108 -0.5516
 1385TIP3    H125714   0.110   3.931   2.174 -0.1587 -0.1282 -2.8446
 1385TIP3    H225715   0.072   3.788   2.141  0.6362 -0.9246 -0.4940
 1386TIP3   OH225716   1.034   0.318   0.430  0.0919  0.1123 -0.3529
 1386TIP3    H125717   1.085   0.254   0.479 -2.2354 -1.4319  0.1729
 1386TIP3    H225718   1.056   0.402   0.471  1.5510 -0.5788  0.3627
 1387TIP3   OH225719   6.801   2.457   0.266  0.1207  0.2441  0.3655
 1387TIP3    H125720   6.809   2.486   0.175  1.9669 -1.1694  0.0222
 1387TIP3    H225721   6.721   2.404   0.267 -0.3898  0.9794 -0.2092
 1388TIP3   OH225722   1.577   0.690   8.459  0.2850 -0.0076  0.2103
 1388TIP3    H125723   1.520   0.752   8.505  0.1641 -0.3932  0.5996
 1388TIP3    H225724   1.543   0.688   8.370 -1.2955 -1.3244  0.7685
 1389TIP3   OH225725   5.343   0.272   7.312  0.0978 -0.3428 -0.1514
 1389TIP3    H125726   5.272   0.301   7.368 -1.1937 -0.0519 -1.8429
 1389TIP3    H225727   5.394   0.350   7.294 -0.1067 -0.2272 -0.2288
 1390TIP3   OH225728   1.467   1.509   0.466 -0.6148  0.4147 -0.6214
 1390TIP3    H125729   1.530   1.440   0.444 -1.6687 -0.6507 -0.3726
 1390TIP3    H225730   1.521   1.582   0.495  0.5981  0.1750 -2.1264
 1391TIP3   OH225731   1.464   0.245   7.701  0.5182 -0.0897 -0.0029
 1391TIP3    H125732   1.537   0.205   7.749  0.5286 -0.7091 -0.5283
 1391TIP3    H225733   1.389   0.236   7.760  0.8187  0.3771  0.4590
 1392TIP3   OH225734   4.097   5.257   0.185  0.2296  0.5443 -0.6458
 1392TIP3    H125735   4.011   5.256   0.226  1.0510  1.9640  1.2751
 1392TIP3    H225736   4.081   5.234   0.094 -1.6895 -3.1422  0.3998
 1393TIP3   OH225737   4.681   3.704   1.365 -0.1371  0.2491  0.0184
 1393TIP3    H125738   4.764   3.657   1.355  0.2889  1.1584 -0.8769
 1393TIP3    H225739   4.670   3.712   1.460  0.3454 -0.6611  0.1580
 1394TIP3   OH225740   3.056   2.513   0.596  0.1692 -0.1796 -0.2454
 1394TIP3    H125741   3.074   2.555   0.512 -0.6615 -0.3786 -0.5255
 1394TIP3    H225742   3.121   2.550   0.656  2.2791 -1.6864 -1.4591
 1395TIP3   OH225743   5.247   0.357   1.690 -0.1004 -0.2173 -0.1233
 1395TIP3    H125744   5.200   0.410   1.626 -0.9712 -0.9052 -0.0844
 1395TIP3    H225745   5.241   0.267   1.656  0.1948 -0.4674  0.4642
 1396TIP3   OH225746   6.821   5.869   1.292  0.3319  0.4296  0.3889
 1396TIP3    H125747   6.907   5.875   1.333  0.3685 -0.4280  0.4520
 1396TIP3    H225748   6.832   5.806   1.221 -0.1184  0.7184  0.0551
 1397TIP3   OH225749   3.865   3.793   2.021 -0.2005 -0.7965  0.1137
 1397TIP3    H125750   3.821   3.842   1.951  0.2394 -0.6358 -0.0546
 1397TIP3    H225751   3.949   3.838   2.032  1.1826 -2.7567 -1.5556
 1398TIP3   OH225752   0.257   5.377   1.130 -0.1729 -0.3766 -0.8540
 1398TIP3    H125753   0.228   5.304   1.075 -2.3008  0.1543 -0.5531
 1398TIP3    H225754   0.311   5.431   1.072  0.1705 -1.4131 -1.5149
 1399TIP3   OH225755   6.037   1.615   7.170  0.7999  0.1072 -0.3403
 1399TIP3    H125756   6.091   1.653   7.239  0.3430 -0.7386  0.4984
 1399TIP3    H225757   5.955   1.664   7.173  0.9166  0.3244 -0.5583
 1400TIP3   OH225758   3.847   5.636   1.400  0.1869 -0.0530  0.1704
 1400TIP3    H125759   3.783   5.651   1.330  0.9717 -2.2482 -1.1292
 1400TIP3    H225760   3.797   5.594   1.470 -0.2097  0.2596  0.0753
 1401TIP3   OH225761   3.073   2.256   0.045 -0.1344  0.3370 -0.7644
 1401TIP3    H125762   3.028   2.188   0.096 -2.6001  0.9320 -1.9998
 1401TIP3    H225763   3.054   2.337   0.092  0.3708  0.5099 -0.8554
 1402TIP3   OH225764   5.312   3.566   0.985  0.3306 -0.2316  0.2128
 1402TIP3    H125765   5.265   3.541   0.905 -1.5935  0.6896  1.0089
 1402TIP3    H225766   5.403   3.572   0.957  0.0025 -1.8238 -1.4603
 1403TIP3   OH225767   3.262   5.341   8.568  0.2512  0.2128  0.1531
 1403TIP3    H125768   3.346   5.383   8.552 -0.0940  1.6403  1.7060
 1403TIP3    H225769   3.197   5.403   8.534 -0.2153 -1.8714 -3.1302
 1404TIP3   OH225770   4.682   6.480   1.768  0.0342  0.4988  0.0964
 1404TIP3    H125771   4.664   6.487   1.674 -2.6480  0.4497  0.5390
 1404TIP3    H225772   4.648   6.562   1.805 -2.3913 -0.9938  1.4105
 1405TIP3   OH225773   3.054   5.004   0.218  0.1860 -0.0385 -0.1969
 1405TIP3    H125774   2.963   5.006   0.189  0.3725  1.0572 -0.7694
 1405TIP3    H225775   3.052   4.955   0.300 -0.8311 -0.5107 -0.4902
 1406TIP3   OH225776   1.949   2.751   7.386 -0.5635 -0.5304  0.3957
 1406TIP3    H125777   1.907   2.666   7.395  3.0822 -2.4606  1.0385
 1406TIP3    H225778   1.910   2.805   7.455 -1.8133 -2.1815  1.0339
 1407TIP3   OH225779   5.110   4.180   1.257  0.1428  0.0966 -0.0918
 1407TIP3    H125780   5.198   4.171   1.220 -0.2575  1.2814 -1.4333
 1407TIP3    H225781   5.069   4.250   1.205 -0.0042  2.9385  3.5054
 1408TIP3   OH225782   3.274   6.575   7.206 -0.5613  0.2083 -0.4084
 1408TIP3    H125783   3.240   6.665   7.203  2.0411  1.3328  0.6194
 1408TIP3    H225784   3.273   6.546   7.115 -0.6907  1.6101 -0.8828
 1409TIP3   OH225785   0.544   0.539   1.032  0.7815 -0.6590 -0.4978
 1409TIP3    H125786   0.452   0.527   1.009 -0.1841  2.5991  1.0288
 1409TIP3    H225787   0.544   0.549   1.127  2.2550  1.9533 -0.6790
 1410TIP3   OH225788   6.830   2.561   0.015 -0.1155  0.0583  0.1920
 1410TIP3    H125789   6.846   2.518  -0.069 -2.7883  1.2037 -1.0125
 1410TIP3    H225790   6.834   2.654  -0.004 -0.6358  0.3445  1.3693
 1411TIP3   OH225791   1.634   2.954   2.091 -0.0696  0.0132 -0.3583
 1411TIP3    H125792   1.663   2.898   2.163  1.3172 -1.1430 -1.7460
 1411TIP3    H225793   1.542   2.974   2.111  0.2070 -0.4473  1.5783
 1412TIP3   OH225794   5.208   1.390   6.350  0.4622  0.0743 -0.5359
 1412TIP3    H125795   5.291   1.370   6.394 -0.4231 -1.7355  0.3783
 1412TIP3    H225796   5.155   1.312   6.361 -1.4030  1.2044 -1.0904
 1413TIP3   OH225797   5.085   3.939   8.497  0.2544 -0.3577  0.0701
 1413TIP3    H125798   4.998   3.980   8.499 -0.0505 -0.8084 -1.7343
 1413TIP3    H225799   5.109   3.930   8.589 -0.7942  1.4613  0.5731
 1414TIP3   OH225800   5.966   0.948   0.677  0.3923  0.2954  0.1272
 1414TIP3    H125801   6.004   0.882   0.619  1.2243  1.0465 -0.2136
 1414TIP3    H225802   5.981   1.031   0.631  0.0956  0.8011  0.9279
 1415TIP3   OH225803   3.009   4.749   0.713 -0.0765 -0.0115 -0.0626
 1415TIP3    H125804   2.921   4.786   0.705  0.0474  0.6095  1.2219
 1415TIP3    H225805   3.016   4.723   0.805  0.8172 -0.7619 -0.3282
 1416TIP3   OH225806   3.576   2.685   7.687 -0.0118  0.8715 -0.0706
 1416TIP3    H125807   3.537   2.685   7.774  0.6115  0.4308  0.2148
 1416TIP3    H225808   3.501   2.684   7.627 -0.4970  2.9301  0.4114
 1417TIP3   OH225809   4.794   6.842   0.415  0.0735 -0.7111 -0.9593
 1417TIP3    H125810   4.744   6.919   0.387 -0.7304 -0.8978 -0.1073
 1417TIP3    H225811   4.733   6.792   0.469  1.6749 -0.0304  1.6646
 1418TIP3   OH225812   2.723   1.170   2.916 -0.3710 -0.5642 -0.4017
 1418TIP3    H125813   2.639   1.205   2.885 -0.3294 -0.0869  0.0151
 1418TIP3    H225814   2.728   1.197   3.007  0.2234 -0.6270 -0.4125
 1419TIP3   OH225815   6.485   1.001   8.230 -0.2310  0.1190 -0.0199
 1419TIP3    H125816   6.550   1.042   8.173 -1.5905  1.1047 -0.9444
 1419TIP3    H225817   6.507   0.908   8.229  0.1385  0.1851 -1.7223
 1420TIP3   OH225818   2.791   0.984   7.612 -0.3740 -0.8133  0.3981
 1420TIP3    H125819   2.818   1.061   7.562  1.9100 -2.0544 -0.4304
 1420TIP3    H225820   2.821   1.001   7.701 -0.6096 -0.4201  0.4060
 1421TIP3   OH225821   4.055   3.381   1.371 -0.4438 -0.1728  0.1370
 1421TIP3    H125822   4.133   3.400   1.319 -1.1290  3.4319  0.1541
 1421TIP3    H225823   4.071   3.294   1.407  3.9385  0.6698  0.8079
 1422TIP3   OH225824   0.780   6.765   8.340  0.1184 -0.2715  0.3015
 1422TIP3    H125825   0.719   6.755   8.267  0.1487 -2.9170  0.5452
 1422TIP3    H225826   0.853   6.707   8.317  1.2550  0.7086  1.3314
 1423TIP3   OH225827   1.875   1.147   0.890  0.2304 -0.3131 -0.1342
 1423TIP3    H125828   1.790   1.108   0.869  0.9261 -2.9367  1.4718
 1423TIP3    H225829   1.895   1.116   0.978  2.2169  1.4799  0.1381
 1424TIP3   OH225830   6.144   1.812   2.031 -0.5086  0.4515 -0.1484
 1424TIP3    H125831   6.108   1.898   2.008 -1.8600 -0.2564 -0.8433
 1424TIP3    H225832   6.068   1.761   2.060  0.3152 -0.4180  0.5427
 1425TIP3   OH225833   2.391   0.272   1.754  0.1688  0.5806  0.4501
 1425TIP3    H125834   2.414   0.339   1.690  0.3189  1.3694  1.3096
 1425TIP3    H225835   2.439   0.194   1.725 -0.4671  0.6499 -0.8949
 1426TIP3   OH225836   3.348   6.335   8.500 -0.4212 -0.5316 -0.3864
 1426TIP3    H125837   3.396   6.328   8.417 -1.5793 -0.4917 -1.0904
 1426TIP3    H225838   3.357   6.427   8.526  2.1782 -1.0881  0.9660
 1427TIP3   OH225839   2.349   4.354   7.565  0.0152  0.4667 -0.7798
 1427TIP3    H125840   2.386   4.438   7.540  1.2421  0.6163  1.3422
 1427TIP3    H225841   2.255   4.364   7.549 -0.1692  3.0327  1.3824
 1428TIP3   OH225842   4.518   2.933   6.958  0.6643 -0.0431  0.6422
 1428TIP3    H125843   4.538   3.004   6.897  0.0932  0.5324  1.1106
 1428TIP3    H225844   4.436   2.896   6.925  0.0220  0.6741  1.4003
 1429TIP3   OH225845   0.076   0.888   7.656  0.5315  0.2534 -0.6053
 1429TIP3    H125846   0.032   0.804   7.642 -0.1700  0.8719 -2.4385
 1429TIP3    H225847   0.006   0.953   7.650  0.7831  0.9456  2.3786
 1430TIP3   OH225848   2.857   6.287   1.860 -0.1718 -0.2051 -0.2721
 1430TIP3    H125849   2.945   6.309   1.828  0.6837 -1.1729  1.3024
 1430TIP3    H225850   2.836   6.357   1.921 -0.7994  0.3677 -1.1172
 1431TIP3   OH225851   4.548   2.276   7.562 -0.9847  0.0765  0.1941
 1431TIP3    H125852   4.635   2.278   7.523 -1.7109 -0.6829 -1.5892
 1431TIP3    H225853   4.556   2.326   7.643  1.1689 -0.2506  0.2259
 1432TIP3   OH225854   0.414   2.021   0.000 -0.1366  0.0262  0.0247
 1432TIP3    H125855   0.501   2.058  -0.014  0.4032 -0.6919  1.2853
 1432TIP3    H225856   0.404   2.018   0.096 -1.9368  0.9794 -0.0874
 1433TIP3   OH225857   3.127   2.505   0.283  0.7435 -0.1775 -0.1826
 1433TIP3    H125858   3.208   2.455   0.288  0.5530 -0.4002  0.9148
 1433TIP3    H225859   3.148   2.588   0.327  1.0851  0.8037 -2.0432
 1434TIP3   OH225860   4.375   5.161   8.450  0.2567  0.0606  0.4219
 1434TIP3    H125861   4.359   5.223   8.521 -2.2417 -0.0506  0.0485
 1434TIP3    H225862   4.342   5.078   8.483 -2.1608  0.2513 -1.1962
 1435TIP3   OH225863   2.854   1.387   2.160  0.5076  0.2193  0.2552
 1435TIP3    H125864   2.778   1.366   2.214  0.8244  0.4324  0.7911
 1435TIP3    H225865   2.927   1.390   2.222  1.1213 -0.8908 -0.3765
 1436TIP3   OH225866   1.377   4.775   8.352  0.2701 -0.5044  0.6689
 1436TIP3    H125867   1.291   4.808   8.376  0.6577  0.3283  0.9569
 1436TIP3    H225868   1.437   4.848   8.369  1.0724 -1.1508  0.7245
 1437TIP3   OH225869   3.562   6.017   7.736  0.3191 -0.0262  0.1592
 1437TIP3    H125870   3.590   5.935   7.694  2.0008  0.2618  0.6135
 1437TIP3    H225871   3.579   6.084   7.670  1.8660  0.2848  0.8116
 1438TIP3   OH225872   4.751   4.449   8.447  0.3517  0.0026 -0.0816
 1438TIP3    H125873   4.675   4.477   8.396 -0.2238 -0.1081  0.6991
 1438TIP3    H225874   4.826   4.469   8.391 -0.2040  0.7684 -0.5726
 1439TIP3   OH225875   5.346   6.013   0.416  0.1638 -0.1276  0.3139
 1439TIP3    H125876   5.328   6.095   0.369  0.0697 -0.3684 -0.0756
 1439TIP3    H225877   5.435   5.991   0.392 -0.0613 -0.5258 -0.1769
 1440TIP3   OH225878   0.954   6.644   0.652  0.5732  0.4371  0.2358
 1440TIP3    H125879   0.971   6.550   0.646 -0.6738  0.1806  0.3653
 1440TIP3    H225880   0.882   6.659   0.591 -1.1186  0.7780  2.1926
 1441TIP3   OH225881   3.556   1.875   2.116 -0.2699 -0.7135 -0.3141
 1441TIP3    H125882   3.631   1.817   2.104  1.0649  0.9669 -0.3661
 1441TIP3    H225883   3.558   1.933   2.041 -1.3539 -0.3328 -0.0671
 1442TIP3   OH225884   0.422   6.261   7.036 -0.4036 -0.2163  0.1610
 1442TIP3    H125885   0.495   6.315   7.004  0.5900 -0.2321  2.2651
 1442TIP3    H225886   0.350   6.322   7.047 -0.4251 -0.0149 -0.9488
 1443TIP3   OH225887   5.478   2.428   1.288  0.0857  0.2293 -0.4158
 1443TIP3    H125888   5.509   2.342   1.260 -0.1710 -0.2117  0.6056
 1443TIP3    H225889   5.404   2.409   1.345 -0.0542  1.1342 -0.2910
 1444TIP3   OH225890   2.082   1.626   2.138 -0.7525 -0.1512  0.6831
 1444TIP3    H125891   2.010   1.594   2.083  0.8239 -1.3483 -0.7973
 1444TIP3    H225892   2.048   1.618   2.228 -2.8362  0.3789  0.0084
 1445TIP3   OH225893   1.607   4.615   2.450  0.0272 -0.1563  0.0802
 1445TIP3    H125894   1.649   4.563   2.381  1.1757  1.5269 -0.5462
 1445TIP3    H225895   1.597   4.554   2.523  0.8827 -1.3822 -0.7877
 1446TIP3   OH225896   3.219   2.548   7.944  0.0980 -0.3433 -0.1624
 1446TIP3    H125897   3.290   2.494   7.979  0.2932 -0.7237 -1.1075
 1446TIP3    H225898   3.141   2.493   7.951 -0.4342  0.6348  2.2995
 1447TIP3   OH225899   6.123   1.504   6.330  0.2420  0.4023  0.3647
 1447TIP3    H125900   6.178   1.575   6.363 -0.8831  2.1437 -1.3083
 1447TIP3    H225901   6.070   1.479   6.406  0.7152  1.2992  1.0173
 1448TIP3   OH225902   5.069   5.726   1.082 -0.1560  0.2798 -0.0009
 1448TIP3    H125903   5.146   5.763   1.125 -0.4649  0.0173  0.7913
 1448TIP3    H225904   5.049   5.787   1.011  0.1617  0.9000  0.4408
 1449TIP3   OH225905   1.789   6.520   8.359 -0.3315 -0.3382 -0.7976
 1449TIP3    H125906   1.797   6.527   8.455 -0.3813  0.3896 -0.8402
 1449TIP3    H225907   1.759   6.431   8.345  0.5130 -0.7346 -0.1897
 1450TIP3   OH225908   1.630   3.244   1.136  0.0373 -0.1939  0.0243
 1450TIP3    H125909   1.616   3.285   1.222  0.8552  1.3163 -0.5356
 1450TIP3    H225910   1.677   3.163   1.156  0.3268  0.1938  0.9981
 1451TIP3   OH225911   3.106   4.965   2.516 -0.3744 -0.4045  0.1154
 1451TIP3    H125912   3.148   4.880   2.503 -0.1240 -0.4689  1.2279
 1451TIP3    H225913   3.175   5.029   2.496 -0.4064 -0.4777 -0.2225
 1452TIP3   OH225914   2.972   5.590   0.715 -0.1702 -0.3156 -0.3471
 1452TIP3    H125915   2.989   5.506   0.673  1.6004 -0.7095  1.0494
 1452TIP3    H225916   2.877   5.598   0.716 -0.3701 -2.3665 -0.3863
 1453TIP3   OH225917   5.264   1.914   1.673  0.3724 -0.4454 -0.1203
 1453TIP3    H125918   5.257   1.946   1.583 -0.4488 -0.8430 -0.2155
 1453TIP3    H225919   5.351   1.875   1.678 -0.0736 -1.6859 -1.1883
 1454TIP3   OH225920   4.078   6.709   1.561  0.1735 -0.1829 -0.2452
 1454TIP3    H125921   4.006   6.751   1.608 -1.6810 -2.5853 -0.7182
 1454TIP3    H225922   4.119   6.779   1.511 -0.6584  1.6000  1.4408
 1455TIP3   OH225923   1.698   5.940   7.090 -0.1214 -0.3562  0.0481
 1455TIP3    H125924   1.758   5.971   7.158 -1.7337 -0.5390  1.6328
 1455TIP3    H225925   1.645   5.873   7.134 -2.3438  0.7099 -0.8763
 1456TIP3   OH225926   4.035   2.663   8.481 -0.2222  0.0299  0.0734
 1456TIP3    H125927   3.999   2.713   8.408 -1.6763 -0.7536  0.2221
 1456TIP3    H225928   4.129   2.656   8.461 -0.6558 -0.5748 -1.9603
 1457TIP3   OH225929   1.334   6.039   1.291  0.1397  0.0154 -0.2534
 1457TIP3    H125930   1.360   5.994   1.371 -0.3495 -1.8764 -1.0888
 1457TIP3    H225931   1.239   6.048   1.299  0.0018 -0.7855 -0.8878
 1458TIP3   OH225932   2.764   1.994   0.598 -0.0283  0.3653  0.3704
 1458TIP3    H125933   2.829   2.062   0.577 -0.9470  1.3958  0.7652
 1458TIP3    H225934   2.774   1.980   0.692  1.1811 -1.1762  0.0603
 1459TIP3   OH225935   4.982   4.706   1.006  0.5816  0.3546  0.3851
 1459TIP3    H125936   5.021   4.792   1.019 -0.2634  0.6026  1.4505
 1459TIP3    H225937   4.967   4.700   0.912  0.3567  1.5106  0.3335
 1460TIP3   OH225938   4.378   1.841   7.499  0.3486 -0.3893  0.8388
 1460TIP3    H125939   4.462   1.804   7.472  1.1861  2.6590 -1.3678
 1460TIP3    H225940   4.314   1.774   7.477  1.8181 -1.1013 -1.8175
 1461TIP3   OH225941   6.368   0.487   8.214 -0.6232  0.1414 -0.2527
 1461TIP3    H125942   6.294   0.540   8.184  1.2673  3.0188 -0.2621
 1461TIP3    H225943   6.421   0.474   8.135  0.3766  0.7622  0.3076
 1462TIP3   OH225944   0.325   2.095   6.935 -0.1280  0.1496 -0.2350
 1462TIP3    H125945   0.388   2.101   6.863  1.2105 -0.3933  0.8650
 1462TIP3    H225946   0.367   2.142   7.007 -0.2937 -1.4900  0.9759
 1463TIP3   OH225947   2.121   6.770   8.043  0.5375 -0.6415  0.1367
 1463TIP3    H125948   2.027   6.769   8.062  0.8956  1.2477  2.5367
 1463TIP3    H225949   2.162   6.733   8.121  1.8785  2.0015  0.8345
 1464TIP3   OH225950   0.914   1.360   7.544  0.2449 -0.1395  0.7892
 1464TIP3    H125951   0.824   1.387   7.564  0.0142 -0.7404  0.5798
 1464TIP3    H225952   0.967   1.404   7.610 -0.4499 -1.7230  2.5110
 1465TIP3   OH225953   5.207   4.932   1.712  0.2802  0.1518  0.1286
 1465TIP3    H125954   5.241   4.968   1.630 -1.8848  1.4938 -0.2596
 1465TIP3    H225955   5.281   4.938   1.773  1.8493 -0.6037 -1.5986
 1466TIP3   OH225956   2.488   2.134   8.136  0.2133 -0.7824 -0.2428
 1466TIP3    H125957   2.517   2.221   8.108 -2.8264  0.0084 -1.3681
 1466TIP3    H225958   2.486   2.139   8.232  1.8875 -0.3283 -0.1909
 1467TIP3   OH225959   1.071   1.690   1.518  0.1770  0.0784  0.1362
 1467TIP3    H125960   1.110   1.614   1.473  0.1690  1.1656 -1.8372
 1467TIP3    H225961   1.107   1.766   1.471  0.0947  1.3204  1.9778
 1468TIP3   OH225962   1.675   2.641   8.056 -0.1166  0.3004  0.0160
 1468TIP3    H125963   1.590   2.656   8.098  0.1074 -0.2223  0.6780
 1468TIP3    H225964   1.675   2.547   8.037 -0.1542  0.4979 -1.0462
 1469TIP3   OH225965   6.214   2.299   2.007 -0.3839 -0.0378 -0.5070
 1469TIP3    H125966   6.236   2.262   2.092  0.9531  3.2124  0.7336
 1469TIP3    H225967   6.232   2.392   2.016 -0.6393  0.5351 -4.2441
 1470TIP3   OH225968   1.552   2.031   6.863  0.4668 -0.6383  0.0339
 1470TIP3    H125969   1.636   1.990   6.845 -0.2747 -1.2612 -2.2906
 1470TIP3    H225970   1.494   1.958   6.884 -0.2509 -0.5709 -1.6170
 1471TIP3   OH225971   3.364   4.853   8.018 -0.7603  0.2259 -0.3106
 1471TIP3    H125972   3.291   4.853   7.957 -0.5816  2.0491 -0.5889
 1471TIP3    H225973   3.439   4.879   7.964 -0.5369  1.5296  0.5906
 1472TIP3   OH225974   0.267   5.615   7.603  0.2111 -0.0493 -0.0392
 1472TIP3    H125975   0.301   5.536   7.561  1.5095  0.6783 -0.4105
 1472TIP3    H225976   0.340   5.676   7.603 -0.8040  1.2257  0.0952
 1473TIP3   OH225977   3.155   5.800   0.703 -0.0037  0.3668 -0.4687
 1473TIP3    H125978   3.143   5.894   0.708 -2.1957  0.1228 -0.4012
 1473TIP3    H225979   3.068   5.763   0.718  1.4910 -1.9047  4.6798
 1474TIP3   OH225980   4.863   0.920   0.518 -0.3097 -0.1150  0.0858
 1474TIP3    H125981   4.774   0.944   0.492 -1.0787 -0.2872  2.3003
 1474TIP3    H225982   4.862   0.825   0.522 -0.2699 -0.0932  0.8052
 1475TIP3   OH225983   3.108   0.583   0.398 -0.5655 -0.1698  0.5728
 1475TIP3    H125984   3.109   0.664   0.448 -0.9273  0.8511 -0.9989
 1475TIP3    H225985   3.015   0.563   0.386 -0.4817 -0.4922  0.4377
 1476TIP3   OH225986   4.288   0.031   0.270  0.5512  0.2431 -0.1504
 1476TIP3    H125987   4.375   0.066   0.289  1.0078 -0.9677  0.1083
 1476TIP3    H225988   4.298  -0.064   0.279 -0.8413  0.0892  0.0579
 1477TIP3   OH225989   5.550   6.665   8.039 -0.2698 -0.0473 -0.7109
 1477TIP3    H125990   5.464   6.669   8.080  0.0615 -0.5936  0.0435
 1477TIP3    H225991   5.611   6.651   8.111  0.4672  0.4345 -1.2283
 1478TIP3   OH225992   3.896   2.436   8.415 -0.3996 -0.3805 -0.1866
 1478TIP3    H125993   3.965   2.378   8.382 -1.2916 -1.3633 -0.3809
 1478TIP3    H225994   3.939   2.522   8.423  0.1820 -0.3020 -2.9029
 1479TIP3   OH225995   5.505   1.103   2.140 -0.1136 -0.0440  0.1474
 1479TIP3    H125996   5.572   1.038   2.122 -0.1980 -0.4553  1.2657
 1479TIP3    H225997   5.424   1.065   2.107 -0.0183 -0.1060 -0.0166
 1480TIP3   OH225998   3.549   1.234   8.352  0.2792 -0.1263 -0.5675
 1480TIP3    H125999   3.546   1.184   8.434  0.0525 -0.0813 -0.5478
 1480TIP3    H226000   3.479   1.299   8.362  1.1296  0.7665 -0.2167
 1481TIP3   OH226001   2.672   5.761   0.940 -0.2270  0.0113 -0.4186
 1481TIP3    H126002   2.752   5.812   0.953  0.0780 -1.0049  2.4452
 1481TIP3    H226003   2.701   5.681   0.896 -0.0505  0.5412 -1.2913
 1482TIP3   OH226004   6.734   5.148   1.880  0.4114  0.1468  0.7345
 1482TIP3    H126005   6.670   5.080   1.900  0.5762 -0.5970 -1.0453
 1482TIP3    H226006   6.691   5.230   1.904 -1.4447 -0.2876 -0.8496
 1483TIP3   OH226007   1.964   5.306   2.823 -0.2012 -0.2635 -0.5583
 1483TIP3    H126008   2.056   5.316   2.798 -0.4077  0.4046 -1.0857
 1483TIP3    H226009   1.939   5.391   2.858 -0.5591 -0.5124 -0.2001
 1484TIP3   OH226010   4.873   6.190   0.721  0.4374 -0.1083  0.1620
 1484TIP3    H126011   4.945   6.253   0.723  1.2979 -1.0760  1.3792
 1484TIP3    H226012   4.912   6.111   0.682 -0.3201 -0.2652 -0.3101
 1485TIP3   OH226013   6.300   6.000   7.176  0.0347 -0.7567  0.1935
 1485TIP3    H126014   6.352   6.005   7.096  0.5743 -2.1760  0.4197
 1485TIP3    H226015   6.218   6.044   7.155  0.8302  0.4317 -0.5657
 1486TIP3   OH226016   1.456   5.900   8.401 -0.1404 -0.0270  0.1526
 1486TIP3    H126017   1.452   5.805   8.396  1.1947 -0.0829 -0.2570
 1486TIP3    H226018   1.547   5.922   8.381 -0.6435  1.3969 -0.7867
 1487TIP3   OH226019   6.713   4.914   0.284  0.4395 -0.0680  0.2558
 1487TIP3    H126020   6.701   4.825   0.252  0.3734 -0.2663  0.8119
 1487TIP3    H226021   6.712   4.905   0.380 -0.1844  0.6053  0.3218
 1488TIP3   OH226022   6.205   1.133   6.418 -0.0218 -0.3296  0.1165
 1488TIP3    H126023   6.191   1.180   6.500  0.6159 -0.7923  0.4963
 1488TIP3    H226024   6.117   1.116   6.385 -0.3210 -1.0472  1.2306
 1489TIP3   OH226025   5.102   2.758   1.488  0.0664 -0.2081 -0.0423
 1489TIP3    H126026   5.146   2.709   1.419 -0.4163 -1.8078  0.7376
 1489TIP3    H226027   5.040   2.696   1.526  2.0892 -0.2773  3.5705
 1490TIP3   OH226028   1.072   2.295   0.562 -0.4760  0.2684  0.3259
 1490TIP3    H126029   0.985   2.272   0.595 -0.9920 -0.5315 -1.4751
 1490TIP3    H226030   1.066   2.282   0.468  0.7968  2.8370 -0.2080
 1491TIP3   OH226031   4.841   6.804   7.016 -0.1121  0.3433 -0.1318
 1491TIP3    H126032   4.801   6.781   6.931  0.5497 -1.2861 -0.0365
 1491TIP3    H226033   4.923   6.847   6.993  0.2185 -0.3808 -0.3345
 1492TIP3   OH226034   6.669   3.211   7.612 -0.2923 -0.1294  0.6378
 1492TIP3    H126035   6.688   3.301   7.641 -0.3642 -0.2442  1.0409
 1492TIP3    H226036   6.731   3.195   7.542 -1.3798  0.8445 -0.5990
 1493TIP3   OH226037   0.890   2.725   0.297  0.3300  0.1217  0.5782
 1493TIP3    H126038   0.955   2.656   0.312  1.2654  0.3436 -1.9109
 1493TIP3    H226039   0.807   2.686   0.324  0.9726 -1.6315  0.1762
 1494TIP3   OH226040   3.128   4.915   7.849  0.5479 -0.0571 -0.5758
 1494TIP3    H126041   3.062   4.880   7.790 -1.2141 -0.6981  1.6268
 1494TIP3    H226042   3.118   5.010   7.843 -1.4332 -0.1352  0.5072
 1495TIP3   OH226043   1.508   1.567   2.161 -0.2488 -1.1204  0.3126
 1495TIP3    H126044   1.504   1.554   2.255  1.6735 -0.6724  0.5022
 1495TIP3    H226045   1.572   1.502   2.130 -1.1450 -1.5306 -0.7555
 1496TIP3   OH226046   5.215   5.551   8.569  0.2109  0.3949  0.0000
 1496TIP3    H126047   5.306   5.526   8.554  0.3550 -1.0430  2.7098
 1496TIP3    H226048   5.167   5.512   8.496  1.3377 -2.1245  0.4852
 1497TIP3   OH226049   6.885   4.933   8.252 -0.3621 -0.6562 -0.0037
 1497TIP3    H126050   6.825   4.974   8.190 -0.4222 -1.4032 -0.4417
 1497TIP3    H226051   6.942   5.005   8.281 -1.1539 -0.0356  0.0642
 1498TIP3   OH226052   0.656   0.289   6.953 -0.4210 -0.0794  0.4836
 1498TIP3    H126053   0.648   0.220   6.888 -0.2516 -0.4152  0.8167
 1498TIP3    H226054   0.724   0.347   6.918 -1.1152  0.3506 -0.1753
 1499TIP3   OH226055   5.946   6.676   0.707 -0.1827  0.1318 -0.0240
 1499TIP3    H126056   5.999   6.738   0.758  0.6191  0.4181 -1.1851
 1499TIP3    H226057   5.929   6.604   0.767  0.5756  0.5534  0.7143
 1500TIP3   OH226058   1.529   3.543   1.717 -0.4967  0.0467 -0.4790
 1500TIP3    H126059   1.548   3.541   1.623  0.1515 -2.6482 -0.3830
 1500TIP3    H226060   1.555   3.631   1.745  3.0509 -0.2917 -2.1607
 1501TIP3   OH226061   4.164   3.407   0.464 -0.4931 -0.2353 -0.2823
 1501TIP3    H126062   4.089   3.419   0.406 -0.2126  2.0512 -0.2770
 1501TIP3    H226063   4.230   3.365   0.408 -0.8860  0.1492 -1.0636
 1502TIP3   OH226064   0.570   2.378   0.816 -0.1893  0.2752  0.1780
 1502TIP3    H126065   0.597   2.406   0.903 -1.6377 -1.1645  1.1552
 1502TIP3    H226066   0.528   2.293   0.830 -2.3625  0.9612 -1.6119
 1503TIP3   OH226067   2.140   1.890   2.134 -0.2796  0.5526  0.5849
 1503TIP3    H126068   2.123   1.797   2.121  0.6537  0.2341  1.4416
 1503TIP3    H226069   2.067   1.921   2.189 -0.7750  0.4154  0.0093
 1504TIP3   OH226070   4.709   2.829   8.346 -0.3471  0.4224  0.0165
 1504TIP3    H126071   4.762   2.751   8.330 -1.1528 -0.4232  1.2675
 1504TIP3    H226072   4.766   2.887   8.397 -0.3203 -0.1095  0.6023
 1505TIP3   OH226073   5.108   2.087   7.029 -0.0461  0.1077  0.1613
 1505TIP3    H126074   5.053   2.166   7.031  1.2990  1.0788  0.1847
 1505TIP3    H226075   5.147   2.088   6.941 -1.0992 -1.3233 -0.3515
 1506TIP3   OH226076   3.018   3.492   7.554 -0.0053  0.2675  0.2642
 1506TIP3    H126077   3.107   3.525   7.541  0.5608 -2.2760 -3.7701
 1506TIP3    H226078   2.972   3.513   7.473 -3.2040  1.3523  2.1424
 1507TIP3   OH226079   6.372   0.834   7.505  0.4196  0.1793  0.2307
 1507TIP3    H126080   6.397   0.749   7.542  2.7100  0.4760 -0.5525
 1507TIP3    H226081   6.302   0.813   7.443 -1.0561 -0.7355  2.0624
 1508TIP3   OH226082   4.360   3.553   0.084  0.2344  0.0288  0.3735
 1508TIP3    H126083   4.325   3.469   0.112  3.3465 -0.7347  2.4667
 1508TIP3    H226084   4.319   3.617   0.142 -1.4001 -0.0853 -0.5889
 1509TIP3   OH226085   3.078   5.739   7.453 -0.2745  0.2848  0.3403
 1509TIP3    H126086   2.991   5.740   7.412 -0.3440  1.7088  0.4624
 1509TIP3    H226087   3.139   5.727   7.380 -0.5994 -2.1477  0.4012
 1510TIP3   OH226088   2.784   2.920   7.654 -0.2817  0.2759 -0.3792
 1510TIP3    H126089   2.720   2.877   7.711 -1.5706 -0.4417 -2.2541
 1510TIP3    H226090   2.861   2.863   7.656  0.6538  1.4655  2.3860
 1511TIP3   OH226091   6.051   1.032   8.152  0.4315 -0.2088 -0.5309
 1511TIP3    H126092   6.056   1.120   8.116  2.1054  0.3628  0.9057
 1511TIP3    H226093   6.136   0.992   8.130  0.4764 -0.7323  0.5072
 1512TIP3   OH226094   2.627   4.675   0.081 -1.1047 -0.3859 -0.2892
 1512TIP3    H126095   2.660   4.595   0.040  2.6184  0.3398  0.9229
 1512TIP3    H226096   2.633   4.658   0.175 -1.1697  0.9729 -0.0155
 1513TIP3   OH226097   4.010   2.574   0.372 -0.4602 -0.2984 -0.4947
 1513TIP3    H126098   3.942   2.628   0.331 -1.0775 -1.5163 -1.1403
 1513TIP3    H226099   4.034   2.622   0.451 -1.5766  0.5069 -0.6152
 1514TIP3   OH226100   2.328   5.124   7.360  0.0409 -0.1191  0.0649
 1514TIP3    H126101   2.242   5.161   7.339 -0.7855 -1.1441  1.4518
 1514TIP3    H226102   2.379   5.136   7.280 -1.7489 -0.4851 -1.2118
 1515TIP3   OH226103   1.059   0.457   1.746  0.6270  0.3930 -0.2711
 1515TIP3    H126104   1.032   0.407   1.824  1.3622  0.1135 -0.1857
 1515TIP3    H226105   1.106   0.393   1.693  1.3101  0.9177 -0.3075
 1516TIP3   OH226106   3.112   4.189   0.818  0.2869  0.0986 -0.0842
 1516TIP3    H126107   3.168   4.264   0.798 -0.7255  0.4712 -1.6540
 1516TIP3    H226108   3.143   4.159   0.904  0.4776  2.5127  0.7690
 1517TIP3   OH226109   1.109   3.024   6.459  0.0608  0.2191 -0.1583
 1517TIP3    H126110   1.047   2.969   6.507  0.6957 -0.2683  0.1211
 1517TIP3    H226111   1.195   2.991   6.484  0.4324  0.6838 -0.7804
 1518TIP3   OH226112   0.163   2.610   0.524 -0.1329  0.3327  0.6906
 1518TIP3    H126113   0.135   2.563   0.446  0.8098 -0.0947  0.5972
 1518TIP3    H226114   0.110   2.573   0.595  0.0787 -0.3563  0.4965
 1519TIP3   OH226115   0.308   1.218   1.219  0.4797  0.2929 -0.0440
 1519TIP3    H126116   0.293   1.297   1.168  0.5964  0.9320  0.8850
 1519TIP3    H226117   0.354   1.159   1.160  1.1870  1.2608 -0.4688
 1520TIP3   OH226118   2.907   1.100   2.433 -0.3777 -0.2069 -0.0071
 1520TIP3    H126119   2.895   1.071   2.523  0.8873  1.1822  0.6729
 1520TIP3    H226120   2.872   1.190   2.432  0.2533  0.0433 -0.7036
 1521TIP3   OH226121   0.125   3.851   8.261  0.6360  0.5523  0.3986
 1521TIP3    H126122   0.053   3.791   8.281  0.9167  0.0650 -0.0246
 1521TIP3    H226123   0.121   3.918   8.329 -1.2240  1.4430 -0.5048
 1522TIP3   OH226124   3.489   1.910   7.875 -0.4997  0.5402  0.3576
 1522TIP3    H126125   3.494   1.897   7.970 -0.5933  1.6380  0.5268
 1522TIP3    H226126   3.430   1.841   7.845  1.1131 -1.1267  0.7988
 1523TIP3   OH226127   3.966   3.508   0.111  0.5093  0.3299  0.4196
 1523TIP3    H126128   3.957   3.427   0.162  1.8954 -0.3090 -0.2787
 1523TIP3    H226129   4.061   3.522   0.107  0.5529 -0.1230 -2.6349
 1524TIP3   OH226130   5.273   0.909   8.030 -0.4111 -0.2220 -0.4496
 1524TIP3    H126131   5.363   0.940   8.037  0.2772 -1.2411 -3.3612
 1524TIP3    H226132   5.261   0.854   8.107  0.7174  1.5000  1.0554
 1525TIP3   OH226133   0.319   4.995   8.372  0.4375 -0.0405  0.6604
 1525TIP3    H126134   0.257   5.031   8.310 -0.5889  0.1776  1.7783
 1525TIP3    H226135   0.403   5.034   8.348 -0.2119  1.2004  0.3292
 1526TIP3   OH226136   6.241   6.377   1.701 -0.3576  0.0822  0.2726
 1526TIP3    H126137   6.181   6.438   1.744  0.5153  1.6114 -0.5882
 1526TIP3    H226138   6.328   6.401   1.735 -0.2237 -2.5643  2.0631
 1527TIP3   OH226139   3.655   3.065   1.039  0.0656  0.0472  0.7426
 1527TIP3    H126140   3.699   2.980   1.041  0.9571  0.5064  1.9159
 1527TIP3    H226141   3.598   3.064   1.117 -1.0208 -0.0141 -0.0250
 1528TIP3   OH226142   2.028   0.540   0.825  0.0254  0.6746 -0.9102
 1528TIP3    H126143   1.994   0.626   0.800 -0.1740  0.6835 -0.6061
 1528TIP3    H226144   1.953   0.481   0.815 -0.1381  0.7290 -0.0427
 1529TIP3   OH226145   1.005   5.240   0.163 -0.2873 -0.6521 -0.2844
 1529TIP3    H126146   1.055   5.306   0.113 -1.3810 -0.5398 -1.2629
 1529TIP3    H226147   0.936   5.290   0.206 -1.3674 -1.1827 -1.3489
 1530TIP3   OH226148   4.112   5.809   2.783  0.0792  0.4682  0.0601
 1530TIP3    H126149   4.082   5.789   2.871 -0.5185  1.4719  0.1069
 1530TIP3    H226150   4.040   5.784   2.726  0.2845  0.2477 -0.1066
 1531TIP3   OH226151   4.483   2.559   0.743  0.3207  0.1425  0.1031
 1531TIP3    H126152   4.436   2.529   0.665  0.5365  1.8906 -0.7430
 1531TIP3    H226153   4.565   2.595   0.709  0.4178  0.9364  1.1340
 1532TIP3   OH226154   3.165   6.754   7.029  0.4013  0.2007  0.8285
 1532TIP3    H126155   3.079   6.725   7.001  1.0623  0.2158 -1.4386
 1532TIP3    H226156   3.148   6.811   7.104 -1.4641 -0.5081  0.9866
 1533TIP3   OH226157   5.527   0.697   0.848 -0.3866 -0.9509 -0.0468
 1533TIP3    H126158   5.536   0.744   0.765 -1.2797  3.2727  1.9646
 1533TIP3    H226159   5.595   0.734   0.904 -1.9090 -1.1543  2.0545
 1534TIP3   OH226160   0.250   1.639   7.003 -0.1366  0.0094  0.2813
 1534TIP3    H126161   0.155   1.628   7.012 -0.0113  0.0470  1.8279
 1534TIP3    H226162   0.272   1.713   7.060  0.6755  0.7892 -0.9888
 1535TIP3   OH226163   6.076   2.629   7.818  0.7612 -0.2867  0.1986
 1535TIP3    H126164   6.009   2.658   7.880 -1.3137 -0.9363 -1.6022
 1535TIP3    H226165   6.120   2.557   7.863  0.4882  0.3569  1.5495
 1536TIP3   OH226166   4.153   5.475   8.025  0.5702 -0.3992  0.2626
 1536TIP3    H126167   4.123   5.558   8.063  0.4242 -0.3225 -0.0151
 1536TIP3    H226168   4.194   5.500   7.943  0.2751 -0.6266  0.0425
 1537TIP3   OH226169   1.052   1.416   1.115  0.4524 -0.9198  0.4349
 1537TIP3    H126170   1.054   1.512   1.117  0.5738 -0.9323  0.9453
 1537TIP3    H226171   1.002   1.395   1.035  1.9067 -0.4492 -0.6298
 1538TIP3   OH226172   2.527   3.072   7.868  0.2478  0.1908  0.2529
 1538TIP3    H126173   2.472   3.019   7.810 -1.8117  1.0990  1.2893
 1538TIP3    H226174   2.467   3.103   7.936  2.0896  1.1395  1.5164
 1539TIP3   OH226175   5.109   0.120   1.858 -0.0291 -0.2128 -0.6931
 1539TIP3    H126176   5.024   0.085   1.885  1.2667 -1.1903  2.5302
 1539TIP3    H226177   5.111   0.209   1.892  0.6596 -0.5927  0.2931
 1540TIP3   OH226178   2.858   5.212   1.631 -1.1792  0.4994  0.2360
 1540TIP3    H126179   2.809   5.219   1.549 -0.4541  0.4516 -0.2097
 1540TIP3    H226180   2.878   5.303   1.655  1.4035  0.4686 -1.3799
 1541TIP3   OH226181   1.378   4.526   1.327  1.2305 -0.7138  0.3602
 1541TIP3    H126182   1.427   4.582   1.388 -0.0982  0.4038  0.4618
 1541TIP3    H226183   1.412   4.548   1.241  0.6675  0.3719  0.3913
 1542TIP3   OH226184   6.896   0.691   8.213  0.3816 -0.2805 -0.3156
 1542TIP3    H126185   6.922   0.602   8.188  0.2677 -0.8775  1.5342
 1542TIP3    H226186   6.816   0.708   8.164 -0.4236 -1.8046  0.4083
 1543TIP3   OH226187   2.413   5.235   7.598 -0.6689  0.1506  0.0755
 1543TIP3    H126188   2.493   5.193   7.628  0.7314  2.6190  0.0321
 1543TIP3    H226189   2.403   5.204   7.507 -0.0708 -0.5725  0.2450
 1544TIP3   OH226190   2.030   2.368   2.226  0.1426 -0.3641  0.0163
 1544TIP3    H126191   1.954   2.422   2.247  0.6199  0.4573 -0.3211
 1544TIP3    H226192   2.098   2.431   2.203  1.3383 -1.0136  1.5856
 1545TIP3   OH226193   3.085   4.025   2.018  0.2791 -0.2497 -0.1477
 1545TIP3    H126194   3.092   4.091   1.949  0.7629 -0.5194 -0.3584
 1545TIP3    H226195   3.037   4.069   2.088 -0.2161  0.0286 -0.6515
 1546TIP3   OH226196   4.608   3.953   0.062 -0.6616 -0.2551 -0.0816
 1546TIP3    H126197   4.546   3.934   0.133  0.9514 -0.3556  1.3772
 1546TIP3    H226198   4.597   4.046   0.045 -1.4026 -0.3302 -0.0452
 1547TIP3   OH226199   3.788   6.804   2.640 -0.0522  0.1417 -0.0804
 1547TIP3    H126200   3.878   6.779   2.663 -0.2551 -0.0182  0.5444
 1547TIP3    H226201   3.740   6.722   2.634 -0.1851  0.2340 -0.3037
 1548TIP3   OH226202   5.030   5.633   2.382 -0.5703  0.4361  0.3357
 1548TIP3    H126203   5.107   5.684   2.358 -0.8777  1.0437  0.5943
 1548TIP3    H226204   5.064   5.551   2.416  0.0083  1.0941  1.4108
 1549TIP3   OH226205   6.835   3.616   1.129  0.7835 -0.6405 -0.0456
 1549TIP3    H126206   6.884   3.655   1.056  1.6838  0.2736  1.0183
 1549TIP3    H226207   6.896   3.552   1.166  0.6081 -0.5666  0.3670
 1550TIP3   OH226208   3.249   6.036   8.200  0.0514  0.1704 -0.2879
 1550TIP3    H126209   3.198   6.036   8.281  1.2070 -0.5237  0.4812
 1550TIP3    H226210   3.186   6.055   8.131 -1.0052  0.5344  0.7517
 1551TIP3   OH226211   1.765   5.565   0.666 -0.7939 -0.0689  0.1177
 1551TIP3    H126212   1.739   5.594   0.754  1.9464  0.5968  0.8086
 1551TIP3    H226213   1.796   5.645   0.623  3.3670 -1.1174  0.7269
 1552TIP3   OH226214   2.614   5.750   0.254  0.0100 -0.3011  0.1490
 1552TIP3    H126215   2.676   5.763   0.182 -0.9939  0.0416 -0.6982
 1552TIP3    H226216   2.554   5.683   0.222  0.3157 -1.1078  1.2164
 1553TIP3   OH226217   4.361   5.869   7.631  0.0377 -0.1127 -0.2026
 1553TIP3    H126218   4.285   5.821   7.599 -0.6469  0.7920 -0.0022
 1553TIP3    H226219   4.422   5.869   7.558  0.3009 -1.7377 -0.0197
 1554TIP3   OH226220   0.993   6.511   7.742 -0.3239 -0.3132  0.0120
 1554TIP3    H126221   1.061   6.494   7.676  0.5375  1.9610  0.2055
 1554TIP3    H226222   1.012   6.600   7.772 -2.4042 -0.2603  1.3132
 1555TIP3   OH226223   3.409   5.726   2.725  0.3756 -0.0099 -0.5275
 1555TIP3    H126224   3.403   5.664   2.653 -0.3664 -0.4293 -0.1144
 1555TIP3    H226225   3.328   5.777   2.720  0.4912  0.2092 -0.2171
 1556TIP3   OH226226   1.928   6.608   7.747 -0.2561  0.2116 -0.0579
 1556TIP3    H126227   1.915   6.533   7.689 -3.6681  0.5611  0.0451
 1556TIP3    H226228   1.893   6.580   7.832  1.2751  0.9276  0.8491
 1557TIP3   OH226229   5.245   0.764   1.793  0.5880  0.3852  0.2582
 1557TIP3    H126230   5.235   0.688   1.850  0.7026 -0.4951 -0.8524
 1557TIP3    H226231   5.175   0.755   1.728  1.3958  0.4880 -0.6650
 1558TIP3   OH226232   6.335   2.210   1.154 -0.1584 -0.2169 -0.2281
 1558TIP3    H126233   6.359   2.137   1.097  0.3107 -0.5289  0.3610
 1558TIP3    H226234   6.414   2.264   1.158 -0.2573 -0.0861 -0.0433
 1559TIP3   OH226235   6.325   0.718   7.908  0.3733 -0.3957  0.3175
 1559TIP3    H126236   6.296   0.665   7.983 -2.1833 -0.7370 -0.8147
 1559TIP3    H226237   6.317   0.808   7.939 -1.2999 -0.5093  0.3078
 1560TIP3   OH226238   5.401   1.991   2.626  0.2442  0.5518 -0.2185
 1560TIP3    H126239   5.463   1.940   2.678 -1.5009 -1.0799  0.3370
 1560TIP3    H226240   5.325   1.935   2.616 -0.3724  1.6706 -2.6998
 1561TIP3   OH226241   2.253   4.769   2.975  0.5356  0.0197 -0.1209
 1561TIP3    H126242   2.337   4.772   2.929 -0.1356  0.1445 -1.3878
 1561TIP3    H226243   2.250   4.681   3.013  0.1522 -0.9501 -2.2502
 1562TIP3   OH226244   1.403   6.201   8.022 -0.0936  0.3151 -0.4103
 1562TIP3    H126245   1.322   6.238   7.987 -0.7515 -0.8323 -0.1496
 1562TIP3    H226246   1.407   6.113   7.984  1.3532  0.5734 -0.8932
 1563TIP3   OH226247   5.126   4.670   0.544 -0.7718  0.1093  0.4993
 1563TIP3    H126248   5.182   4.747   0.542  0.3839 -0.6840  1.1049
 1563TIP3    H226249   5.115   4.646   0.452 -1.6280  1.3045  0.2630
 1564TIP3   OH226250   6.319   2.329   8.385  0.8578 -0.0725  0.1628
 1564TIP3    H126251   6.359   2.346   8.300 -1.2744 -0.7996 -1.0502
 1564TIP3    H226252   6.290   2.238   8.380 -0.9096  0.4141  0.9478
 1565TIP3   OH226253   0.513   6.428   3.050  0.2749 -0.1798 -0.0734
 1565TIP3    H126254   0.568   6.504   3.065 -1.8008  1.0824  1.8125
 1565TIP3    H226255   0.569   6.366   3.003  3.2125  1.0179  1.5985
 1566TIP3   OH226256   5.548   4.515   1.025  0.4292 -0.0186 -0.1675
 1566TIP3    H126257   5.576   4.543   1.112  0.4279  0.4750 -0.3181
 1566TIP3    H226258   5.613   4.554   0.966  0.8092 -0.8925 -0.3459
 1567TIP3   OH226259   2.195   1.509   1.698 -0.5646  0.2604 -1.0051
 1567TIP3    H126260   2.236   1.455   1.631  1.2666 -1.1539  1.1425
 1567TIP3    H226261   2.101   1.497   1.683 -0.2111 -1.3814 -2.2288
 1568TIP3   OH226262   1.110   4.741   1.638 -0.4869 -0.0774 -0.2874
 1568TIP3    H126263   1.160   4.729   1.558 -1.2654  0.0356 -0.8122
 1568TIP3    H226264   1.029   4.691   1.623 -1.3572  1.2581 -0.2718
 1569TIP3   OH226265   0.110   2.282   0.303 -0.4192 -0.0938  0.1659
 1569TIP3    H126266   0.147   2.217   0.245  0.3002 -0.6960  1.2573
 1569TIP3    H226267   0.046   2.329   0.250  0.1613 -0.6673 -1.0641
 1570TIP3   OH226268   0.574   2.360   1.302  0.1847  0.0178  0.7898
 1570TIP3    H126269   0.665   2.378   1.323  0.5798 -0.5579 -0.3669
 1570TIP3    H226270   0.559   2.271   1.333  0.3879 -0.3474 -0.1436
 1571TIP3   OH226271   3.477   3.092   1.247  0.0489  0.2771  0.2025
 1571TIP3    H126272   3.491   3.072   1.339  1.4609 -0.1355 -0.0757
 1571TIP3    H226273   3.404   3.154   1.246  0.1652  0.4614  1.6012
 1572TIP3   OH226274   5.250   0.134   2.253  0.2068  0.2319 -0.6126
 1572TIP3    H126275   5.276   0.173   2.336 -1.3186 -1.3642  0.6873
 1572TIP3    H226276   5.207   0.205   2.205  1.9419  1.4193 -0.4861
 1573TIP3   OH226277   1.393   4.978   7.910 -0.6915 -0.6849 -0.3151
 1573TIP3    H126278   1.344   4.981   7.828 -1.7421 -1.8932  0.2287
 1573TIP3    H226279   1.328   4.993   7.978  0.2407  0.7167  0.3042
 1574TIP3   OH226280   2.837   6.569   7.569  0.0483 -0.0594  0.3862
 1574TIP3    H126281   2.900   6.507   7.533 -1.4162 -1.3512 -0.0904
 1574TIP3    H226282   2.819   6.629   7.496 -0.0935 -0.3722  0.1583
 1575TIP3   OH226283   0.154   5.787   7.847  0.3297 -0.5235 -0.0964
 1575TIP3    H126284   0.180   5.851   7.914 -0.3371 -0.4651  0.1196
 1575TIP3    H226285   0.224   5.789   7.783  1.4577 -1.2432  1.0521
 1576TIP3   OH226286   3.908   5.851   2.287  0.5867 -0.4904 -0.1579
 1576TIP3    H126287   3.990   5.807   2.264  0.5404  0.0915 -1.5402
 1576TIP3    H226288   3.926   5.895   2.370  2.2231  0.9887 -1.2445
 1577TIP3   OH226289   0.817   1.037   2.127 -0.2613 -0.5340 -0.0665
 1577TIP3    H126290   0.907   1.033   2.160  0.1121 -0.4202 -1.0271
 1577TIP3    H226291   0.780   1.114   2.169  1.3706  1.8195 -2.6006
 1578TIP3   OH226292   0.732   1.823   0.979  0.0003  0.1164  0.2685
 1578TIP3    H126293   0.668   1.781   1.036  1.0523 -1.7372  0.1583
 1578TIP3    H226294   0.806   1.843   1.036 -0.3341  1.5425  0.2393
 1579TIP3   OH226295   1.071   4.144   8.224  0.1775  0.2724  0.1934
 1579TIP3    H126296   1.055   4.157   8.131  3.3543 -1.2624 -0.7421
 1579TIP3    H226297   1.041   4.055   8.242  1.8061 -0.3774 -0.0829
 1580TIP3   OH226298   2.208   2.295   1.502 -0.6937 -0.1221 -0.3253
 1580TIP3    H126299   2.192   2.212   1.548 -1.2431  0.1610  0.0101
 1580TIP3    H226300   2.123   2.318   1.465 -0.2460 -0.3686 -1.5412
 1581TIP3   OH226301   0.999   1.807   8.073  0.0951 -0.7102  0.6542
 1581TIP3    H126302   1.063   1.869   8.039  0.2918 -1.0783  0.3495
 1581TIP3    H226303   1.020   1.799   8.166  0.5259 -0.8717  0.5445
 1582TIP3   OH226304   3.904   6.142   0.178 -0.0714 -0.1353  0.3284
 1582TIP3    H126305   3.915   6.186   0.262  0.0976 -1.2641  0.9184
 1582TIP3    H226306   3.836   6.193   0.133 -3.0497 -1.6131  2.7213
 1583TIP3   OH226307   2.533   6.631   1.822  0.6366  0.0228  0.0416
 1583TIP3    H126308   2.517   6.668   1.908  1.3153  1.5731 -0.4776
 1583TIP3    H226309   2.626   6.645   1.807  0.6674 -0.8612 -0.6688
 1584TIP3   OH226310   3.712   1.486   7.138  0.5175  0.4381 -0.4196
 1584TIP3    H126311   3.783   1.539   7.105  0.4086  1.5820  1.0718
 1584TIP3    H226312   3.694   1.422   7.069  0.3397  2.6205 -2.4869
 1585TIP3   OH226313   5.366   2.348   1.808 -0.2489 -0.5450  0.2399
 1585TIP3    H126314   5.428   2.318   1.874 -0.0894  1.8625  1.2887
 1585TIP3    H226315   5.299   2.279   1.805 -0.0663 -0.9136  2.6543
 1586TIP3   OH226316   1.676   2.621   0.256  0.1159  0.5170 -0.1683
 1586TIP3    H126317   1.637   2.707   0.246 -0.9157 -0.0575 -1.3488
 1586TIP3    H226318   1.680   2.585   0.168 -0.0125 -0.8718  0.3521
 1587TIP3   OH226319   0.517   1.055   1.118  0.0008  0.1962  0.4633
 1587TIP3    H126320   0.594   1.005   1.094 -1.5817 -2.5860  0.7695
 1587TIP3    H226321   0.498   1.028   1.208 -2.1604 -0.4163 -0.1164
 1588TIP3   OH226322   6.425   1.402   1.101 -0.0789  0.2646 -0.5202
 1588TIP3    H126323   6.488   1.338   1.132 -2.2740 -1.8084  0.0068
 1588TIP3    H226324   6.407   1.378   1.010 -0.6605  0.3249 -0.4300
 1589TIP3   OH226325   1.527   3.967   0.734  0.2622  0.1264  0.2602
 1589TIP3    H126326   1.622   3.966   0.743  0.2753 -1.5757  0.3746
 1589TIP3    H226327   1.495   3.943   0.821 -0.2179 -0.1996 -0.0018
 1590TIP3   OH226328   1.319   1.111   1.114 -0.3960 -0.1731 -0.4229
 1590TIP3    H126329   1.305   1.177   1.046 -2.6146  1.0855  1.1167
 1590TIP3    H226330   1.264   1.037   1.087 -0.0672 -0.2868 -0.7764
 1591TIP3   OH226331   6.009   6.381   8.042 -0.0662  0.3847  0.0893
 1591TIP3    H126332   6.060   6.300   8.038 -0.2265  0.2259  1.1371
 1591TIP3    H226333   5.937   6.362   8.102  0.3735  1.5691  1.0219
 1592TIP3   OH226334   4.396   6.698   2.084 -0.1785 -0.1501  0.0639
 1592TIP3    H126335   4.307   6.697   2.117 -1.1938  2.2473 -2.1935
 1592TIP3    H226336   4.432   6.781   2.115  0.5766 -0.2166 -0.5892
 1593TIP3   OH226337   0.030   1.444   0.425 -0.3210 -0.1439 -0.3410
 1593TIP3    H126338   0.124   1.429   0.431 -0.1989  0.8530  0.4289
 1593TIP3    H226339   0.022   1.531   0.387 -0.8447  0.9677  2.1009
 1594TIP3   OH226340   1.985   0.060   2.571 -0.0923 -0.0678  0.5961
 1594TIP3    H126341   2.068   0.082   2.614 -0.3902 -0.3867  1.3491
 1594TIP3    H226342   1.988  -0.035   2.559  0.7585  0.1908 -1.7480
 1595TIP3   OH226343   6.829   1.549   2.896 -0.2605  0.1644 -0.3327
 1595TIP3    H126344   6.899   1.514   2.950  0.8670  2.4977 -0.1529
 1595TIP3    H226345   6.874   1.594   2.824 -1.6211  0.1899 -1.2169
 1596TIP3   OH226346   4.768   1.023   2.608  0.0543 -0.8690  0.2627
 1596TIP3    H126347   4.750   0.930   2.626  2.3299 -1.2610  0.7573
 1596TIP3    H226348   4.811   1.055   2.687 -2.1376  1.1222  0.7888
 1597TIP3   OH226349   3.872   1.944   0.399  0.5738  0.0916 -0.1471
 1597TIP3    H126350   3.964   1.966   0.415  0.7790 -1.0467  0.3235
 1597TIP3    H226351   3.839   1.919   0.485 -0.0353 -0.0411 -0.4204
 1598TIP3   OH226352   1.358   1.374   0.135 -0.5068  0.3011 -0.0466
 1598TIP3    H126353   1.347   1.301   0.196 -1.0138  0.6746  0.3098
 1598TIP3    H226354   1.319   1.449   0.180 -1.6441  0.4059 -1.1696
 1599TIP3   OH226355   4.824   6.080   7.261  0.2557 -0.8695  0.0300
 1599TIP3    H126356   4.908   6.125   7.255 -0.8655  1.1509 -1.6803
 1599TIP3    H226357   4.774   6.130   7.325 -0.3800 -0.7235 -0.5634
 1600TIP3   OH226358   5.759   1.948   7.963  0.3461  0.5540  0.5378
 1600TIP3    H126359   5.680   1.998   7.982  1.2435  2.0715  0.4448
 1600TIP3    H226360   5.804   1.943   8.047  0.9548  1.1897  0.2598
 1601TIP3   OH226361   4.027   2.132   7.653 -0.3842  0.4964 -0.5468
 1601TIP3    H126362   4.112   2.092   7.674  0.3627  1.3309 -1.8264
 1601TIP3    H226363   4.022   2.128   7.557 -1.5944  0.8658 -0.5093
 1602TIP3   OH226364   3.540   6.049   2.882  0.7184  0.2970  0.4217
 1602TIP3    H126365   3.485   6.107   2.935 -0.5555  0.9545 -1.4907
 1602TIP3    H226366   3.573   6.106   2.812  0.1900 -1.0571 -0.9824
 1603TIP3   OH226367   0.918   4.177   2.161 -0.3081 -0.5394 -0.0176
 1603TIP3    H126368   0.880   4.212   2.242  1.1672 -2.6158  1.7005
 1603TIP3    H226369   0.855   4.111   2.132 -1.7812  1.4977 -1.7552
 1604TIP3   OH226370   5.252   4.220   0.012  0.3739 -0.2273  0.3850
 1604TIP3    H126371   5.312   4.203  -0.060 -0.0039 -0.3731  0.1045
 1604TIP3    H226372   5.200   4.140   0.019  1.9176 -1.1609  2.3122
 1605TIP3   OH226373   1.872   2.892   3.425 -0.3470  0.5777  0.0265
 1605TIP3    H126374   1.965   2.901   3.401  0.2017 -0.8050  1.4905
 1605TIP3    H226375   1.856   2.798   3.425 -0.9616  0.6146  2.5084
 1606TIP3   OH226376   5.490   3.864   8.482 -0.0508 -0.3880  0.2709
 1606TIP3    H126377   5.554   3.854   8.412  1.1124  0.5823  1.1490
 1606TIP3    H226378   5.450   3.950   8.465  0.6640  0.1255  1.0984
 1607TIP3   OH226379   0.856   2.940   0.475  0.3586 -0.2422 -0.0597
 1607TIP3    H126380   0.871   2.875   0.407 -1.5510 -0.3518 -0.4439
 1607TIP3    H226381   0.817   2.892   0.547  0.5545  0.1945  0.3455
 1608TIP3   OH226382   3.859   1.226   8.570  0.6221  0.4641  0.0009
 1608TIP3    H126383   3.900   1.180   8.496  0.3399 -1.3299  0.8957
 1608TIP3    H226384   3.863   1.319   8.547  0.8629 -0.0293 -2.0851
 1609TIP3   OH226385   1.358   6.881   0.027  0.7031 -0.3533  0.3613
 1609TIP3    H126386   1.342   6.822   0.100 -1.0058 -1.4398 -0.8276
 1609TIP3    H226387   1.441   6.853  -0.010 -0.1046 -2.1189 -0.2182
 1610TIP3   OH226388   3.773   2.260   1.857  0.1433 -0.5979 -0.1560
 1610TIP3    H126389   3.862   2.229   1.878 -0.2349 -0.8225  1.2227
 1610TIP3    H226390   3.785   2.315   1.780  1.4569 -0.7749 -0.1124
 1611TIP3   OH226391   6.232   2.318   7.680  0.2028  0.4627  0.5468
 1611TIP3    H126392   6.143   2.301   7.711 -0.4462  0.0821 -1.3517
 1611TIP3    H226393   6.283   2.244   7.712 -0.6287 -0.3923 -0.0420
 1612TIP3   OH226394   2.067   0.276   0.611  0.3771 -0.5143  0.0872
 1612TIP3    H126395   2.121   0.325   0.548  0.7626 -1.0139  0.0271
 1612TIP3    H226396   1.979   0.314   0.601  0.7717  0.5437  0.4264
 1613TIP3   OH226397   4.391   1.514   1.785 -0.4050  0.5881  0.4320
 1613TIP3    H126398   4.470   1.507   1.839  0.5373 -1.3062 -1.0579
 1613TIP3    H226399   4.368   1.424   1.764 -2.5966  1.1347  0.2444
 1614TIP3   OH226400   0.575   3.649   7.104 -0.4186  0.1088 -0.4885
 1614TIP3    H126401   0.647   3.703   7.072  0.3735 -1.2446 -1.0994
 1614TIP3    H226402   0.613   3.600   7.177  0.0205 -2.2647 -2.1954
 1615TIP3   OH226403   5.993   0.437   7.956 -0.3109 -0.1349  0.1623
 1615TIP3    H126404   6.016   0.528   7.939  0.1122 -0.0666  1.0615
 1615TIP3    H226405   5.924   0.441   8.022  0.6788 -0.4924  1.2452
 1616TIP3   OH226406   2.913   2.671   7.283 -0.1721 -0.1633  0.0768
 1616TIP3    H126407   2.891   2.647   7.192  0.7506  0.2357 -0.2655
 1616TIP3    H226408   2.969   2.748   7.274 -0.4255  0.1398  1.0156
 1617TIP3   OH226409   2.874   5.923   0.927  0.8088 -0.4221 -0.0545
 1617TIP3    H126410   2.936   5.959   0.991  0.5164  0.2098 -0.1243
 1617TIP3    H226411   2.891   5.972   0.847  0.7551 -0.7924 -0.2951
 1618TIP3   OH226412   0.580   3.523   0.209  0.0457  0.1617 -0.7202
 1618TIP3    H126413   0.555   3.614   0.225 -1.8399  0.1387 -3.0197
 1618TIP3    H226414   0.660   3.529   0.157  0.8096  0.4222  0.4445
 1619TIP3   OH226415   2.896   0.129   1.837 -0.3364  0.1516 -0.1622
 1619TIP3    H126416   2.889   0.206   1.893  2.7542  0.5528 -0.1462
 1619TIP3    H226417   2.941   0.161   1.758  1.4944 -1.6542  0.0702
 1620TIP3   OH226418   6.703   2.615   0.470  0.1224  0.1789 -0.1000
 1620TIP3    H126419   6.668   2.575   0.549  0.3743  1.5162  0.7261
 1620TIP3    H226420   6.749   2.544   0.425 -0.0984 -0.6216  0.9019
 1621TIP3   OH226421   0.641   5.163   7.890  0.0816 -0.5479  0.4339
 1621TIP3    H126422   0.611   5.230   7.828  1.8597  0.7424  0.8910
 1621TIP3    H226423   0.564   5.107   7.903 -1.4840  1.3645 -0.0232
 1622TIP3   OH226424   5.107   4.690   7.558 -0.2822  0.2533 -0.3438
 1622TIP3    H126425   5.185   4.665   7.607  0.3051  1.3666 -0.6799
 1622TIP3    H226426   5.039   4.698   7.624  0.0375 -0.1121  0.0362
 1623TIP3   OH226427   4.412   1.304   2.641 -0.2232  0.2312  0.1142
 1623TIP3    H126428   4.436   1.346   2.724 -1.9846 -1.7526  1.7257
 1623TIP3    H226429   4.492   1.258   2.614  0.4484  1.1227  0.5004
 1624TIP3   OH226430   6.475   0.125   2.321 -0.2956  0.1159 -0.1629
 1624TIP3    H126431   6.416   0.152   2.391 -0.5759 -0.1538 -0.2947
 1624TIP3    H226432   6.549   0.086   2.367 -0.3633  0.1680 -0.0084
 1625TIP3   OH226433   3.195   6.626   8.274 -0.1417  0.4579  0.2843
 1625TIP3    H126434   3.204   6.586   8.188 -0.6006 -0.7335  0.7687
 1625TIP3    H226435   3.101   6.645   8.282  0.1383  2.1789 -0.1541
 1626TIP3   OH226436   1.313   3.418   1.384  0.1083 -0.4648 -0.3838
 1626TIP3    H126437   1.306   3.414   1.479 -1.2532  0.8957 -0.3885
 1626TIP3    H226438   1.223   3.412   1.353  0.1920  2.1607 -1.3972
 1627TIP3   OH226439   1.063   3.702   0.047 -0.7097  0.4570  0.0697
 1627TIP3    H126440   1.054   3.629  -0.014 -1.0426  0.6391 -0.1054
 1627TIP3    H226441   1.110   3.769  -0.003  0.5234 -0.0230  0.5719
 1628TIP3   OH226442   3.291   3.558   7.554 -0.0561 -0.3459  0.7263
 1628TIP3    H126443   3.335   3.634   7.591  0.1682 -0.7837  1.3636
 1628TIP3    H226444   3.346   3.533   7.480 -0.5974  0.6291 -0.0353
 1629TIP3   OH226445   1.714   6.052   8.342  0.3636 -0.7026 -0.1202
 1629TIP3    H126446   1.795   6.039   8.392  1.0930  0.1073 -1.0453
 1629TIP3    H226447   1.659   6.107   8.399  1.1655  0.1734 -0.1639
 1630TIP3   OH226448   4.715   3.632   2.926  0.3463  0.1162 -0.0840
 1630TIP3    H126449   4.747   3.621   2.837  0.0676  0.0782 -0.1809
 1630TIP3    H226450   4.642   3.693   2.918 -0.4513 -0.8100 -0.0503
 1631TIP3   OH226451   3.514   4.012   1.192  0.0924  0.4457 -0.3251
 1631TIP3    H126452   3.489   4.092   1.144 -0.0853  1.4905  1.4069
 1631TIP3    H226453   3.521   4.041   1.283  0.5121 -1.4398  0.2741
 1632TIP3   OH226454   3.420   4.901   1.389  0.4889  0.4386  0.5815
 1632TIP3    H126455   3.357   4.846   1.343  1.7301  0.7474 -1.6502
 1632TIP3    H226456   3.381   4.916   1.475 -0.5604 -2.6798  0.7663
 1633TIP3   OH226457   6.820   0.018   8.531  0.3289 -0.0905  0.0702
 1633TIP3    H126458   6.812   0.096   8.586  0.5880  0.3769 -0.5398
 1633TIP3    H226459   6.782  -0.053   8.583  1.1229  0.2218  1.1047
 1634TIP3   OH226460   6.126   3.111   7.787  0.5501 -0.6228 -0.0377
 1634TIP3    H126461   6.096   3.187   7.736  0.4663 -0.2552  0.5518
 1634TIP3    H226462   6.179   3.061   7.725 -2.2883 -1.9900 -1.5057
 1635TIP3   OH226463   6.298   2.703   6.984 -0.9521  0.2099  0.2959
 1635TIP3    H126464   6.369   2.714   7.046  0.8587 -1.4432 -1.3691
 1635TIP3    H226465   6.230   2.657   7.033 -0.0852  0.0351  1.3701
 1636TIP3   OH226466   0.681   2.993   8.376 -0.1285  0.2692  0.5855
 1636TIP3    H126467   0.622   2.947   8.436  0.4006  0.1218  1.0017
 1636TIP3    H226468   0.728   3.056   8.431  1.7084 -1.1332  0.7348
 1637TIP3   OH226469   1.210   5.258   3.499 -0.5501  0.1848  0.0852
 1637TIP3    H126470   1.256   5.332   3.538  1.0721 -2.2033  3.2212
 1637TIP3    H226471   1.176   5.209   3.574 -2.0382 -1.9636 -1.8469
 1638TIP3   OH226472   0.554   3.201   1.693 -0.3691 -0.3310  0.2477
 1638TIP3    H126473   0.631   3.226   1.744  0.5300  0.1015 -1.2738
 1638TIP3    H226474   0.558   3.255   1.615 -1.6126 -1.1170 -0.3907
 1639TIP3   OH226475   2.508   4.822   8.446  0.4599  0.3784  0.2232
 1639TIP3    H126476   2.579   4.886   8.441 -0.0613  1.1291  1.8528
 1639TIP3    H226477   2.532   4.766   8.520  0.2774 -0.5294 -0.3949
 1640TIP3   OH226478   2.285   3.908   7.446  0.6963 -0.5343  0.1394
 1640TIP3    H126479   2.282   3.822   7.404  0.7878  1.0143 -3.3863
 1640TIP3    H226480   2.211   3.955   7.410  0.3436  0.7856  2.3932
 1641TIP3   OH226481   1.548   2.254   8.352 -0.1877 -0.1692 -0.4056
 1641TIP3    H126482   1.525   2.220   8.438  0.0466 -1.1368 -0.7154
 1641TIP3    H226483   1.615   2.194   8.319  0.6011  0.8729 -0.7696
 1642TIP3   OH226484   4.480   1.364   0.853 -0.2000  0.3755 -0.0430
 1642TIP3    H126485   4.553   1.329   0.904 -0.0953  0.1433 -0.3495
 1642TIP3    H226486   4.463   1.450   0.892  0.3049  0.4773 -0.0372
 1643TIP3   OH226487   2.252   2.695   7.587  0.0396 -0.4515 -0.0699
 1643TIP3    H126488   2.195   2.662   7.517  2.0765  2.8789 -3.6843
 1643TIP3    H226489   2.313   2.623   7.603 -2.4216 -2.5126  0.8461
 1644TIP3   OH226490   4.658   0.467   8.140 -0.2783 -0.3883  0.1637
 1644TIP3    H126491   4.722   0.424   8.083 -0.4230 -0.9482  0.4178
 1644TIP3    H226492   4.630   0.399   8.201 -2.0755 -0.5383 -0.7414
 1645TIP3   OH226493   4.404   5.736   0.981  0.1661 -0.5985  0.2538
 1645TIP3    H126494   4.490   5.755   1.020  0.1681 -1.5878  0.7586
 1645TIP3    H226495   4.341   5.753   1.051  0.0605 -1.1163  0.2877
 1646TIP3   OH226496   2.938   4.132   0.099  0.7428 -0.0285 -0.2259
 1646TIP3    H126497   2.843   4.121   0.088  0.7140  0.2371 -0.2585
 1646TIP3    H226498   2.948   4.178   0.182  0.6357  2.8577 -1.6693
 1647TIP3   OH226499   1.954   2.358   0.763  0.0284  0.3355 -0.3654
 1647TIP3    H126500   1.983   2.314   0.683  0.0456 -1.4107  0.5712
 1647TIP3    H226501   1.859   2.358   0.758  0.0300  0.2457 -0.3856
 1648TIP3   OH226502   1.589   0.203   0.258 -0.7514 -0.8853 -0.1914
 1648TIP3    H126503   1.511   0.148   0.258 -0.3732 -1.4776  1.5505
 1648TIP3    H226504   1.559   0.287   0.292 -1.1133 -0.3023 -1.8734
 1649TIP3   OH226505   4.601   4.723   7.167  0.2941 -0.3663  0.5302
 1649TIP3    H126506   4.533   4.676   7.215  0.7130 -0.5950  0.9048
 1649TIP3    H226507   4.595   4.813   7.200 -1.1635  0.1143 -0.8925
 1650TIP3   OH226508   4.086   0.267   7.656  0.0170  0.0449  0.1484
 1650TIP3    H126509   4.133   0.267   7.740 -0.0028  0.1173  0.1593
 1650TIP3    H226510   4.008   0.214   7.673 -0.4913  0.8745  0.4591
 1651TIP3   OH226511   2.956   0.559   2.292 -1.0342 -0.3128 -0.1476
 1651TIP3    H126512   2.981   0.472   2.324  0.3688 -0.1076 -0.5980
 1651TIP3    H226513   3.009   0.620   2.345 -3.7544  0.4854  1.8704
 1652TIP3   OH226514   3.853   0.619   0.622 -0.3220 -0.2784 -0.2593
 1652TIP3    H126515   3.816   0.657   0.541 -1.4187  0.2322  0.4531
 1652TIP3    H226516   3.947   0.635   0.615 -0.4357  0.0140 -1.3105
 1653TIP3   OH226517   0.598   1.205   7.656 -0.1852 -0.1076 -0.5712
 1653TIP3    H126518   0.676   1.150   7.652 -0.7547 -0.9869  0.0375
 1653TIP3    H226519   0.527   1.147   7.629 -1.0682 -0.2333  1.7721
 1654TIP3   OH226520   5.915   5.819   1.490 -0.6097  0.2731 -0.1914
 1654TIP3    H126521   5.979   5.762   1.534 -0.0002 -1.9250 -3.5795
 1654TIP3    H226522   5.967   5.885   1.445 -1.1028  1.3318  0.7334
 1655TIP3   OH226523   0.909   3.411   2.280  0.1628 -0.4749  0.1461
 1655TIP3    H126524   0.915   3.343   2.213  1.1550  0.0757 -0.3336
 1655TIP3    H226525   0.947   3.372   2.358  0.3763 -0.5992 -0.0218
 1656TIP3   OH226526   0.225   4.225   1.483  0.1592 -0.7680  0.7055
 1656TIP3    H126527   0.279   4.235   1.561 -1.3013  0.3373  1.6328
 1656TIP3    H226528   0.229   4.310   1.439  1.2008 -1.4596 -0.6321
 1657TIP3   OH226529   1.456   2.850   8.532  0.3507 -0.4179  0.2464
 1657TIP3    H126530   1.460   2.880   8.441 -0.0513  0.1423  0.4067
 1657TIP3    H226531   1.410   2.767   8.527 -0.7184  0.1647  0.0518
 1658TIP3   OH226532   3.606   0.668   0.162 -0.4107 -0.0447  0.2346
 1658TIP3    H126533   3.626   0.606   0.091 -1.6529  0.1516 -0.3018
 1658TIP3    H226534   3.513   0.686   0.153 -0.2328  1.3167  0.8679
 1659TIP3   OH226535   5.084   1.248   8.417 -0.3881 -0.9461 -0.1425
 1659TIP3    H126536   5.158   1.266   8.359 -1.0863  0.8974 -0.5132
 1659TIP3    H226537   5.117   1.180   8.476  1.3888 -0.6315 -0.7027
 1660TIP3   OH226538   4.904   1.560   1.487 -0.4511 -0.5793  0.2425
 1660TIP3    H126539   4.933   1.650   1.494  0.5939 -0.8452 -0.4877
 1660TIP3    H226540   4.910   1.539   1.394 -2.0247 -0.9829  0.1968
 1661TIP3   OH226541   0.315   2.659   6.808 -0.8166  0.1716  0.1839
 1661TIP3    H126542   0.367   2.739   6.804 -1.6559  0.7919  1.1800
 1661TIP3    H226543   0.376   2.592   6.840 -0.5859  0.8842  1.3024
 1662TIP3   OH226544   1.203   3.971   7.903  0.0642  0.0655 -0.5772
 1662TIP3    H126545   1.149   4.043   7.936  1.8492 -0.6208  4.8368
 1662TIP3    H226546   1.291   4.008   7.895  0.2328 -0.5745 -1.9711
 1663TIP3   OH226547   5.882   4.402   1.149  0.2188  0.6226 -0.6407
 1663TIP3    H126548   5.873   4.342   1.075 -0.1359  1.3939 -1.2281
 1663TIP3    H226549   5.800   4.391   1.198 -0.0261  0.9392 -0.9799
 1664TIP3   OH226550   1.367   4.289   6.721 -0.2300  0.5089  0.0013
 1664TIP3    H126551   1.322   4.272   6.638 -1.5483  1.0089  0.5786
 1664TIP3    H226552   1.345   4.214   6.776 -1.4128  1.3273  0.6929
 1665TIP3   OH226553   6.566   6.277   8.356  0.4952 -0.5644  0.2553
 1665TIP3    H126554   6.633   6.211   8.338  0.3127 -0.7676  0.3276
 1665TIP3    H226555   6.483   6.232   8.343  0.3680 -0.2608 -0.0277
 1666TIP3   OH226556   1.806   3.646   1.742  0.2521  0.5831 -0.1829
 1666TIP3    H126557   1.732   3.706   1.752 -2.5780 -2.5798 -0.0950
 1666TIP3    H226558   1.797   3.585   1.815  1.8771 -0.9733 -1.1934
 1667TIP3   OH226559   5.291   0.051   8.524  0.2213  1.1234 -0.0883
 1667TIP3    H126560   5.268  -0.003   8.601 -2.8941  1.1244 -0.8958
 1667TIP3    H226561   5.344  -0.007   8.470 -1.1827 -0.4167  0.1055
 1668TIP3   OH226562   3.611   4.575   0.245  0.2169 -0.7057 -0.7758
 1668TIP3    H126563   3.540   4.618   0.196 -0.0132  0.9979  0.9447
 1668TIP3    H226564   3.566   4.518   0.307  0.4813 -1.9635 -1.6996
 1669TIP3   OH226565   1.048   4.876   7.873 -0.6523 -0.4424 -0.3396
 1669TIP3    H126566   1.028   4.833   7.790  2.2107 -1.6924 -0.5056
 1669TIP3    H226567   1.067   4.804   7.933 -0.6981  0.5071  0.8444
 1670TIP3   OH226568   4.150   4.183   2.051  0.2253  0.5213  0.3860
 1670TIP3    H126569   4.101   4.221   2.124  0.2871 -1.5861  1.5803
 1670TIP3    H226570   4.224   4.138   2.092  0.9418  0.2878 -1.0951
 1671TIP3   OH226571   4.844   3.571   0.563 -0.0246 -0.0515 -0.1460
 1671TIP3    H126572   4.835   3.665   0.580 -0.3498  0.1618 -1.3960
 1671TIP3    H226573   4.816   3.529   0.645 -0.8416  0.9184  0.0951
 1672TIP3   OH226574   0.501   1.863   8.387 -0.6640 -0.1517 -0.0041
 1672TIP3    H126575   0.463   1.905   8.465 -0.2920 -1.9614  1.2290
 1672TIP3    H226576   0.440   1.793   8.365 -0.4823 -0.0009 -1.0246
 1673TIP3   OH226577   5.615   4.035   0.136 -0.5589 -0.6460  0.1223
 1673TIP3    H126578   5.621   3.982   0.056  0.3145  1.8947 -1.6019
 1673TIP3    H226579   5.523   4.030   0.160 -1.0764 -0.6438 -1.6804
 1674TIP3   OH226580   6.266   2.027   7.190 -0.0961  0.1159  0.4234
 1674TIP3    H126581   6.220   1.953   7.150 -0.5759  0.2787  0.6680
 1674TIP3    H226582   6.207   2.057   7.259  0.8023 -0.3036  1.4023
 1675TIP3   OH226583   0.127   6.898   0.871  0.5248 -0.0188 -0.2091
 1675TIP3    H126584   0.109   6.917   0.963 -1.1890  0.4326 -0.6065
 1675TIP3    H226585   0.222   6.896   0.865  0.6562 -0.4612  1.6512
 1676TIP3   OH226586   5.278   0.310   6.936  0.6489 -0.1845  0.4956
 1676TIP3    H126587   5.340   0.379   6.910  1.0195 -0.6130  0.2200
 1676TIP3    H226588   5.304   0.234   6.883 -0.3849 -0.2481  0.0715
 1677TIP3   OH226589   4.921   6.819   8.045 -0.4057  0.2287 -1.0082
 1677TIP3    H126590   4.875   6.879   8.105 -1.4411 -0.9693 -0.5715
 1677TIP3    H226591   4.920   6.864   7.961  1.6199  2.2388 -0.0720
 1678TIP3   OH226592   3.213   4.576   2.090  0.8137  0.0529  0.1465
 1678TIP3    H126593   3.284   4.529   2.134  0.2174 -0.7779  0.2412
 1678TIP3    H226594   3.184   4.641   2.154 -1.7215 -2.7359  2.1078
 1679TIP3   OH226595   2.294   3.694   2.363  0.1891 -0.0061  0.0386
 1679TIP3    H126596   2.283   3.780   2.404 -0.2632  0.2723 -0.6590
 1679TIP3    H226597   2.371   3.704   2.307  0.6034 -0.2872  0.5514
 1680TIP3   OH226598   0.371   0.049   8.122 -0.3902  0.1173  0.1993
 1680TIP3    H126599   0.442   0.112   8.136  0.5979 -0.9888  0.2776
 1680TIP3    H226600   0.291   0.098   8.144  0.1102  2.0626 -1.9101
 1681TIP3   OH226601   0.341   1.306   6.856 -0.2493  0.2239 -0.5502
 1681TIP3    H126602   0.412   1.309   6.920  1.2180 -0.0172 -2.1205
 1681TIP3    H226603   0.370   1.243   6.791 -2.0697 -0.1309 -1.0766
 1682TIP3   OH226604   6.695   1.007   1.230 -0.0142 -0.0169  0.1047
 1682TIP3    H126605   6.754   1.046   1.165  0.2930 -2.8300 -1.4957
 1682TIP3    H226606   6.607   1.023   1.196  0.1561 -2.0547 -1.5548
 1683TIP3   OH226607   2.920   2.540   8.237  0.3178  0.1990  0.3426
 1683TIP3    H126608   2.865   2.556   8.314 -0.1759 -3.0813  0.8239
 1683TIP3    H226609   2.906   2.448   8.217  1.2153  0.6943 -3.1398
 1684TIP3   OH226610   2.301   2.006   8.462  0.2382  0.1439  0.4252
 1684TIP3    H126611   2.250   2.046   8.391  1.9558  2.0766  0.1963
 1684TIP3    H226612   2.258   2.035   8.542  0.2832  0.7660  0.2243
 1685TIP3   OH226613   6.647   0.906   0.037  0.0386 -0.3264 -0.4904
 1685TIP3    H126614   6.625   0.999   0.031 -2.7181 -0.8367  0.2023
 1685TIP3    H226615   6.603   0.866  -0.039 -0.2905 -1.2619  0.1691
 1686TIP3   OH226616   1.952   5.245   8.457  0.5290 -0.0217  0.2138
 1686TIP3    H126617   2.012   5.211   8.391 -1.1533  0.9117 -1.9317
 1686TIP3    H226618   1.977   5.337   8.466  1.2236 -0.3065  1.5126
 1687TIP3   OH226619   5.711   6.632   3.219 -0.3939  0.9661 -0.3540
 1687TIP3    H126620   5.634   6.577   3.233  0.6881 -1.1646 -2.2686
 1687TIP3    H226621   5.682   6.697   3.155 -0.6205  0.1212 -1.1350
 1688TIP3   OH226622   3.297   2.661   1.816  0.0049  0.1555 -0.2884
 1688TIP3    H126623   3.367   2.702   1.866 -0.4480 -0.1291  0.5953
 1688TIP3    H226624   3.335   2.645   1.730  1.0572 -0.0918  0.2153
 1689TIP3   OH226625   1.155   0.238   1.021 -0.7604 -0.1674 -0.2980
 1689TIP3    H126626   1.224   0.290   1.061 -1.2690  0.8040 -0.6284
 1689TIP3    H226627   1.128   0.176   1.089 -0.2973  0.1630  0.1927
 1690TIP3   OH226628   5.105   0.448   7.887 -0.2352  0.1416  0.3027
 1690TIP3    H126629   5.092   0.396   7.807 -1.1144  0.5411  0.1728
 1690TIP3    H226630   5.156   0.524   7.858 -1.6178  0.9405 -0.1796
 1691TIP3   OH226631   2.325   4.385   0.484 -0.6992  0.1342  0.1246
 1691TIP3    H126632   2.328   4.358   0.576  1.7115 -3.2582 -0.7500
 1691TIP3    H226633   2.261   4.327   0.444  0.0330 -0.1004 -0.7390
 1692TIP3   OH226634   6.444   5.470   1.416 -0.0798  0.7748  0.0647
 1692TIP3    H126635   6.520   5.447   1.362  1.2246  0.9267  1.7461
 1692TIP3    H226636   6.385   5.395   1.409 -0.6085  1.3563 -2.6209
 1693TIP3   OH226637   1.254   0.610   1.290  0.2915 -0.1740 -0.1551
 1693TIP3    H126638   1.290   0.536   1.340  0.1769  0.3350  0.7016
 1693TIP3    H226639   1.229   0.674   1.357 -1.5724 -0.2195 -0.7454
 1694TIP3   OH226640   5.370   5.309   7.852  0.0641 -0.0011  0.0041
 1694TIP3    H126641   5.388   5.217   7.836 -0.4932 -0.2876  0.9386
 1694TIP3    H226642   5.361   5.316   7.947  0.0366  1.0030 -0.0593
 1695TIP3   OH226643   6.226   4.488   7.679 -0.1167  0.1659  0.0634
 1695TIP3    H126644   6.142   4.529   7.702 -1.4774 -2.5132  0.2647
 1695TIP3    H226645   6.224   4.481   7.584  0.5665  1.3532 -0.0631
 1696TIP3   OH226646   3.242   3.662   7.828 -0.2151  0.1739  0.1041
 1696TIP3    H126647   3.280   3.747   7.848 -1.2869  0.6380  0.1965
 1696TIP3    H226648   3.314   3.600   7.842  0.0392  0.8346  2.0376
 1697TIP3   OH226649   1.807   1.431   1.029  0.4273 -0.3242  0.1505
 1697TIP3    H126650   1.739   1.385   0.979 -1.6002  0.2596  2.1795
 1697TIP3    H226651   1.768   1.445   1.115  2.3897  1.8741  0.7991
 1698TIP3   OH226652   2.764   3.051   0.485  0.1011 -0.1159  0.5724
 1698TIP3    H126653   2.852   3.077   0.457 -0.0939  1.1166  1.0581
 1698TIP3    H226654   2.765   2.955   0.481  1.3768 -0.1081  0.3193
 1699TIP3   OH226655   4.773   3.165   6.979  0.1918  0.2373 -0.1066
 1699TIP3    H126656   4.777   3.226   6.905 -0.5346  1.0941  0.5410
 1699TIP3    H226657   4.706   3.101   6.953  0.2617  0.2721 -0.3815
 1700TIP3   OH226658   4.337   2.250   0.801 -0.5855 -0.3498  0.2603
 1700TIP3    H126659   4.350   2.215   0.713 -2.3837 -0.0682 -0.1507
 1700TIP3    H226660   4.296   2.335   0.787 -2.8707 -1.1988  1.3854
 1701TIP3   OH226661   3.481   5.544   1.043  0.0141 -0.0542  0.0229
 1701TIP3    H126662   3.465   5.615   0.981  1.8916  1.0004  0.6831
 1701TIP3    H226663   3.422   5.562   1.116 -0.2662  0.2304 -0.2695
 1702TIP3   OH226664   3.621   2.451   8.364  0.0745  0.4002 -0.4875
 1702TIP3    H126665   3.633   2.524   8.424  0.2239  0.9090 -1.1269
 1702TIP3    H226666   3.710   2.422   8.343  0.0052 -0.4462  0.3307
 1703TIP3   OH226667   5.255   1.108   1.159  0.1107 -0.1297  0.4942
 1703TIP3    H126668   5.344   1.103   1.195  1.0404 -0.0913 -1.6223
 1703TIP3    H226669   5.264   1.075   1.069 -1.7954  0.9556 -0.1482
 1704TIP3   OH226670   2.072   3.612   1.750  0.0742  0.3266 -0.0388
 1704TIP3    H126671   1.982   3.585   1.729  0.0381  0.7324 -0.4136
 1704TIP3    H226672   2.067   3.707   1.761  0.3066  0.2502  0.7383
 1705TIP3   OH226673   1.622   5.985   0.729 -0.1424  0.7348 -0.0408
 1705TIP3    H126674   1.549   6.041   0.702 -1.0689 -0.3601  0.1159
 1705TIP3    H226675   1.636   6.006   0.821 -0.4985  0.6821  0.0249
 1706TIP3   OH226676   1.517   5.735   1.377  0.0841 -0.3158  0.3188
 1706TIP3    H126677   1.470   5.805   1.423 -1.5231 -0.4777 -0.9923
 1706TIP3    H226678   1.586   5.709   1.438 -0.7169  0.8213  1.7904
 1707TIP3   OH226679   1.380   0.331   7.269 -0.0846  0.1333 -0.3157
 1707TIP3    H126680   1.393   0.245   7.309  1.2398  1.1829  1.7001
 1707TIP3    H226681   1.461   0.347   7.220 -0.4491  0.1379 -0.9338
 1708TIP3   OH226682   2.453   5.546   0.160 -0.0561 -0.3691 -0.5093
 1708TIP3    H126683   2.449   5.478   0.227  0.0674  0.5825  0.5072
 1708TIP3    H226684   2.510   5.511   0.092  0.7105 -0.9378  0.4048
 1709TIP3   OH226685   0.513   3.529   1.749  0.6439 -0.3835  0.6181
 1709TIP3    H126686   0.582   3.506   1.688  0.4806 -0.7323  0.5667
 1709TIP3    H226687   0.543   3.612   1.788  0.7124 -0.1217  0.0197
 1710TIP3   OH226688   1.294   1.840   1.085  0.1206 -0.4295 -0.2710
 1710TIP3    H126689   1.388   1.831   1.070  0.7630  1.9462  1.6818
 1710TIP3    H226690   1.271   1.922   1.041 -0.8980 -0.6189 -0.1221
 1711TIP3   OH226691   6.214   4.741   2.167  0.1452  0.0880 -0.0981
 1711TIP3    H126692   6.291   4.709   2.119 -0.4399 -0.1278 -0.9025
 1711TIP3    H226693   6.169   4.797   2.105 -0.7089 -0.3274  0.1369
 1712TIP3   OH226694   5.224   2.299   0.849 -0.2070  0.2794  0.3013
 1712TIP3    H126695   5.137   2.279   0.882 -0.1710  2.4805  1.9204
 1712TIP3    H226696   5.270   2.339   0.923  1.6260  0.7018 -0.9894
 1713TIP3   OH226697   0.752   6.340   7.787 -0.3475 -0.3818 -0.2285
 1713TIP3    H126698   0.811   6.405   7.748 -1.1342  1.3572  1.3559
 1713TIP3    H226699   0.808   6.288   7.845 -0.0275  0.0491 -0.1463
 1714TIP3   OH226700   3.257   0.639   0.899  0.0857 -0.1940 -0.2485
 1714TIP3    H126701   3.184   0.597   0.855 -0.4650 -2.0018  2.1690
 1714TIP3    H226702   3.334   0.612   0.849 -0.5657 -1.6040 -0.5455
 1715TIP3   OH226703   3.199   3.539   1.904 -0.0100 -0.7778 -0.4686
 1715TIP3    H126704   3.273   3.596   1.927 -0.3498 -0.2418 -0.6823
 1715TIP3    H226705   3.236   3.477   1.841  0.0646  0.0260 -1.2378
 1716TIP3   OH226706   1.055   0.027   1.161 -0.6532 -0.1458 -0.0973
 1716TIP3    H126707   1.102   0.014   1.243  1.3674  1.0961 -0.9771
 1716TIP3    H226708   1.099  -0.032   1.099  2.3845  3.4770 -1.8139
 1717TIP3   OH226709   6.159   6.444   0.395  0.3295  0.3753 -0.5016
 1717TIP3    H126710   6.213   6.522   0.385 -0.3577  0.9979  0.4525
 1717TIP3    H226711   6.070   6.478   0.403  0.1071 -0.4296  0.7285
 1718TIP3   OH226712   6.079   5.551   0.220  0.4168 -0.1903 -0.2188
 1718TIP3    H126713   6.170   5.575   0.202 -0.2234  2.0115 -0.8515
 1718TIP3    H226714   6.042   5.627   0.263 -1.3387 -0.7261 -0.6913
 1719TIP3   OH226715   1.220   5.634   1.901  0.2809  0.2798  0.3969
 1719TIP3    H126716   1.238   5.581   1.824 -0.7689  0.8939 -0.2930
 1719TIP3    H226717   1.158   5.700   1.871 -1.6057 -0.5742  2.1543
 1720TIP3   OH226718   2.072   0.556   1.585 -0.1137 -0.0280 -0.3093
 1720TIP3    H126719   2.099   0.632   1.534 -0.7665  0.6353  0.3009
 1720TIP3    H226720   2.085   0.482   1.526  0.3183  0.5764 -0.9959
 1721TIP3   OH226721   0.093   5.943   8.235  0.1406  0.0941 -0.3087
 1721TIP3    H126722   0.099   5.991   8.152  0.5312 -1.3577 -1.1608
 1721TIP3    H226723   0.013   5.892   8.227 -0.0112  0.2228  0.3669
 1722TIP3   OH226724   0.225   1.441   1.077 -0.2310  0.2285  0.0209
 1722TIP3    H126725   0.137   1.447   1.116 -0.3002  0.6793 -0.2007
 1722TIP3    H226726   0.256   1.532   1.075  0.5745 -0.0145  0.8574
 1723TIP3   OH226727   2.762   1.876   2.715  0.2453 -0.4376  0.0692
 1723TIP3    H126728   2.722   1.829   2.643  0.0854  0.5291 -0.4886
 1723TIP3    H226729   2.839   1.825   2.737  0.1456 -0.8892 -0.6006
 1724TIP3   OH226730   6.369   2.786   8.046  0.0952  0.7200  0.3318
 1724TIP3    H126731   6.338   2.717   8.104 -2.2326  1.1298 -0.3488
 1724TIP3    H226732   6.427   2.838   8.101 -0.7823  0.1740  1.8390
 1725TIP3   OH226733   0.966   0.933   6.652  0.2222  0.4910  0.3455
 1725TIP3    H126734   1.015   1.005   6.612  1.1620  0.0636  0.7000
 1725TIP3    H226735   0.874   0.960   6.645  0.5042  1.3350 -0.2804
 1726TIP3   OH226736   6.120   0.640   1.619 -0.0093 -0.0005 -0.2543
 1726TIP3    H126737   6.038   0.594   1.638 -0.5546 -0.0496 -2.4241
 1726TIP3    H226738   6.122   0.645   1.523  1.7402  1.4458 -0.1799
 1727TIP3   OH226739   3.560   3.429   2.965  0.1102  0.3029  0.5119
 1727TIP3    H126740   3.617   3.502   2.990  0.3193 -0.0530  1.0917
 1727TIP3    H226741   3.497   3.468   2.905  0.9945  0.6882 -0.1881
 1728TIP3   OH226742   0.591   5.079   8.335  0.2037 -0.2360  0.0151
 1728TIP3    H126743   0.622   5.154   8.285  0.6119 -1.1424 -1.1318
 1728TIP3    H226744   0.608   5.004   8.279  1.9166 -1.4772  2.0156
 1729TIP3   OH226745   2.598   6.423   0.954 -0.3323 -0.7003  0.0417
 1729TIP3    H126746   2.624   6.469   1.034 -0.1359  0.2427 -0.5387
 1729TIP3    H226747   2.681   6.408   0.908 -0.4241 -1.4128  0.1084
 1730TIP3   OH226748   4.236   2.210   1.326  0.3312  0.0373  0.2541
 1730TIP3    H126749   4.203   2.264   1.254  2.9498 -1.1885 -2.0824
 1730TIP3    H226750   4.172   2.221   1.396 -1.4980  2.6605 -1.6403
 1731TIP3   OH226751   0.012   4.985   0.116  0.3914 -0.1697 -0.4645
 1731TIP3    H126752   0.072   5.043   0.163 -0.4391  1.2147 -1.0563
 1731TIP3    H226753  -0.061   4.972   0.175  0.5036 -0.4796 -0.3949
 1732TIP3   OH226754   4.582   1.202   8.519 -0.0631  0.0508 -0.3062
 1732TIP3    H126755   4.649   1.196   8.451 -0.8150 -0.2491 -1.0376
 1732TIP3    H226756   4.571   1.296   8.533  2.0366  0.1269  1.4009
 1733TIP3   OH226757   0.067   1.712   0.944  0.3196  0.1167 -0.0012
 1733TIP3    H126758   0.095   1.665   0.866  3.8028  0.1950  1.0583
 1733TIP3    H226759   0.107   1.799   0.936 -1.3577  1.0031  0.7273
 1734TIP3   OH226760   3.205   1.768   0.624  0.0210  0.1897 -0.8376
 1734TIP3    H126761   3.121   1.743   0.585 -0.5311  0.1507  0.3417
 1734TIP3    H226762   3.192   1.760   0.718  1.5038 -0.2771 -0.6378
 1735TIP3   OH226763   2.985   6.102   0.391  0.1589  0.3941 -0.0235
 1735TIP3    H126764   2.891   6.104   0.408  0.0434  0.2651 -0.6355
 1735TIP3    H226765   3.012   6.016   0.424  0.1183  0.5433  0.4119
 1736TIP3   OH226766   5.078   0.274   2.629  0.0465  0.4426  0.0208
 1736TIP3    H126767   5.067   0.208   2.697  0.2023 -0.3360 -0.6887
 1736TIP3    H226768   5.166   0.260   2.595  0.0983  1.0502 -0.1043
 1737TIP3   OH226769   2.692   5.571   8.314 -0.1539  1.5078 -0.7263
 1737TIP3    H126770   2.745   5.640   8.354  0.7446 -0.0387  0.8743
 1737TIP3    H226771   2.654   5.524   8.388 -0.9631  0.4474 -1.7759
 1738TIP3   OH226772   1.170   2.978   7.743  0.2899  0.0903 -0.0550
 1738TIP3    H126773   1.084   2.946   7.770  0.2207  0.0897 -0.2701
 1738TIP3    H226774   1.210   2.904   7.697  0.5831 -0.0520  0.4282
 1739TIP3   OH226775   3.254   4.025   0.244 -0.0842  0.2612  0.6578
 1739TIP3    H126776   3.331   3.974   0.271  0.2178  0.0484 -0.5599
 1739TIP3    H226777   3.204   4.037   0.325  1.3682  0.6524  1.5370
 1740TIP3   OH226778   1.938   6.587   0.974 -0.2055 -0.0116  0.6914
 1740TIP3    H126779   2.013   6.644   0.990  1.1032 -1.5218  0.2316
 1740TIP3    H226780   1.866   6.627   1.022  1.3949  0.3707  2.9432
 1741TIP3   OH226781   5.139   4.646   8.062 -0.2130  0.0285 -0.5620
 1741TIP3    H126782   5.068   4.647   7.998  0.6880  1.0733 -1.5811
 1741TIP3    H226783   5.212   4.689   8.018  0.1186  1.7721  1.5281
 1742TIP3   OH226784   4.903   6.513   2.752 -0.4815 -0.6742 -0.3519
 1742TIP3    H126785   4.944   6.584   2.704 -2.7724  0.5225 -0.6826
 1742TIP3    H226786   4.828   6.554   2.796 -0.4395 -2.4109  1.4818
 1743TIP3   OH226787   1.062   2.187   0.318 -0.0151 -0.6424  0.1079
 1743TIP3    H126788   0.998   2.121   0.344 -2.6000  0.6900 -2.2411
 1743TIP3    H226789   1.009   2.262   0.290  2.5481  0.5244 -2.1600
 1744TIP3   OH226790   1.883   2.832   7.036  0.1734  0.1715  0.2713
 1744TIP3    H126791   1.797   2.798   7.014 -1.0142  2.7076  0.6650
 1744TIP3    H226792   1.883   2.839   7.132  0.9015 -0.0012  0.2922
 1745TIP3   OH226793   1.833   5.351   7.843  0.1247  0.1025  0.1468
 1745TIP3    H126794   1.893   5.341   7.769 -0.8179 -0.8594 -0.5263
 1745TIP3    H226795   1.783   5.269   7.844  0.1367  0.0806  1.8920
 1746TIP3   OH226796   0.885   5.018   0.961  0.1890 -0.0080  0.1917
 1746TIP3    H126797   0.941   4.959   0.911 -1.7884 -1.3912 -0.5643
 1746TIP3    H226798   0.933   5.101   0.965  1.2546 -0.4169 -2.3993
 1747TIP3   OH226799   4.141   0.782   8.133  0.1072  0.1839 -0.6379
 1747TIP3    H126800   4.089   0.749   8.206 -0.3307 -1.1135 -1.4954
 1747TIP3    H226801   4.227   0.802   8.171 -0.4401  0.5715  0.4274
 1748TIP3   OH226802   1.227   4.564   2.255 -0.4025  0.4137 -0.4469
 1748TIP3    H126803   1.225   4.522   2.340  0.7537 -0.0114 -0.6103
 1748TIP3    H226804   1.195   4.652   2.271  1.4218  0.9177  0.7940
 1749TIP3   OH226805   1.845   4.261   2.536  0.0967  0.6728 -0.4490
 1749TIP3    H126806   1.908   4.326   2.568  0.3236 -0.9971  2.9520
 1749TIP3    H226807   1.760   4.306   2.541  0.4431  1.2912  0.0272
 1750TIP3   OH226808   5.404   4.219   0.367 -0.2937  0.6493 -0.3045
 1750TIP3    H126809   5.498   4.239   0.367  0.1110 -1.1191 -0.9504
 1750TIP3    H226810   5.377   4.230   0.458  1.3130 -2.0153  0.6122
 1751TIP3   OH226811   0.421   0.226   2.961  0.3973  0.1240  0.2295
 1751TIP3    H126812   0.400   0.210   3.053 -1.0520 -0.6465 -0.2009
 1751TIP3    H226813   0.367   0.301   2.936  1.3120  0.7803  0.1707
 1752TIP3   OH226814   3.800   0.172   7.675  0.1432 -0.2596  0.1754
 1752TIP3    H126815   3.818   0.208   7.762  1.2730  0.3847 -0.3115
 1752TIP3    H226816   3.771   0.082   7.692 -0.9085  0.2577  1.2902
 1753TIP3   OH226817   5.208   5.710   1.820 -0.7234  0.4045  0.1681
 1753TIP3    H126818   5.118   5.726   1.790 -0.9479  0.2483  0.7463
 1753TIP3    H226819   5.212   5.616   1.834 -0.2549  0.3182 -0.5203
 1754TIP3   OH226820   0.591   3.739   0.792  0.1847 -0.3232  0.4178
 1754TIP3    H126821   0.646   3.817   0.787 -0.2902  0.0427  0.8371
 1754TIP3    H226822   0.508   3.770   0.829 -0.1992 -0.9240  0.0748
 1755TIP3   OH226823   6.458   2.645   0.722  0.0903 -0.2032 -0.1931
 1755TIP3    H126824   6.523   2.692   0.775  1.8447  0.0660 -2.4173
 1755TIP3    H226825   6.395   2.712   0.697  2.2087  1.0076 -2.7819
 1756TIP3   OH226826   5.603   3.242   1.610  0.0446 -0.5416  0.0425
 1756TIP3    H126827   5.683   3.290   1.593 -0.1386 -0.5747 -1.0244
 1756TIP3    H226828   5.624   3.152   1.584 -0.5508 -0.3992 -1.0157
 1757TIP3   OH226829   4.820   4.633   7.355 -0.6630  0.2270  0.2968
 1757TIP3    H126830   4.774   4.555   7.385  1.4663 -2.2538 -2.3646
 1757TIP3    H226831   4.765   4.668   7.286  0.0093 -1.1006 -0.9641
 1758TIP3   OH226832   3.242   0.498   7.559 -0.4951  0.0728 -0.5615
 1758TIP3    H126833   3.268   0.556   7.487  1.1242  0.2875  0.1452
 1758TIP3    H226834   3.179   0.550   7.610  1.5170  1.6020  0.5056
 1759TIP3   OH226835   0.338   0.731   0.333 -0.2177 -0.5151 -0.1786
 1759TIP3    H126836   0.300   0.666   0.392  2.9553 -0.6918  1.9921
 1759TIP3    H226837   0.429   0.701   0.321  0.1799  1.3526 -2.5236
 1760TIP3   OH226838   6.643   2.446   0.675 -0.4188  0.0854 -0.0695
 1760TIP3    H126839   6.576   2.507   0.704 -0.9212 -0.3287 -0.3401
 1760TIP3    H226840   6.601   2.394   0.607  0.1886 -0.1550 -0.2750
 1761TIP3   OH226841   1.832   0.142   0.861 -0.0911  0.0448  0.0475
 1761TIP3    H126842   1.796   0.103   0.941  0.1482 -2.2842 -0.9148
 1761TIP3    H226843   1.867   0.068   0.811  0.8889  1.5746 -1.6711
 1762TIP3   OH226844   4.798   5.131   0.276 -0.6472  0.2157  0.1906
 1762TIP3    H126845   4.717   5.153   0.229  0.1151  1.9495 -0.4082
 1762TIP3    H226846   4.769   5.081   0.352 -2.0936 -1.0086 -1.0983
 1763TIP3   OH226847   4.939   0.288   2.391 -0.2333  0.2790  0.2613
 1763TIP3    H126848   4.943   0.376   2.355  3.3751 -0.5807 -1.9672
 1763TIP3    H226849   5.021   0.277   2.438 -0.1664 -2.1566 -0.2758
 1764TIP3   OH226850   4.526   0.445   0.460  0.1609 -0.0854  0.2871
 1764TIP3    H126851   4.490   0.521   0.506 -0.7968 -1.4656  1.8831
 1764TIP3    H226852   4.475   0.441   0.379  0.5004  1.1898 -0.0219
 1765TIP3   OH226853   5.369   0.927   2.530  0.0207 -0.1695  0.2458
 1765TIP3    H126854   5.295   0.950   2.586 -0.4159  1.7088 -1.0071
 1765TIP3    H226855   5.400   1.010   2.495 -0.7999 -1.3120 -3.6114
 1766TIP3   OH226856   4.860   5.606   1.624  0.6666  0.5599 -0.0187
 1766TIP3    H126857   4.855   5.544   1.697 -4.9969  0.3237 -0.1890
 1766TIP3    H226858   4.856   5.692   1.665  2.3578  0.6694 -0.0101
 1767TIP3   OH226859   2.260   4.565   7.862 -0.7196  0.4540 -0.1394
 1767TIP3    H126860   2.232   4.619   7.789  4.1193  2.0863 -1.1573
 1767TIP3    H226861   2.318   4.621   7.913 -0.7176 -1.8644  2.6779
 1768TIP3   OH226862   1.985   1.599   2.424 -0.6137  0.0522 -0.1049
 1768TIP3    H126863   2.061   1.566   2.471 -0.0121  2.5009  0.7885
 1768TIP3    H226864   1.992   1.694   2.430 -1.7779  0.4554 -3.2255
 1769TIP3   OH226865   5.616   2.030   0.530 -0.0341  0.3577  0.1112
 1769TIP3    H126866   5.654   2.033   0.618 -0.6176 -0.1813  0.3882
 1769TIP3    H226867   5.526   2.061   0.542  0.4683  2.3080 -0.6490
 1770TIP3   OH226868   5.854   6.859   0.486  0.7074 -0.1504  0.0258
 1770TIP3    H126869   5.858   6.809   0.568 -1.3377 -0.5687 -0.0962
 1770TIP3    H226870   5.881   6.947   0.511 -0.4459 -0.1329  1.2895
 1771TIP3   OH226871   6.912   4.809   7.889 -0.5047 -0.0760 -0.5986
 1771TIP3    H126872   6.979   4.740   7.887  0.5712  0.8493  0.9786
 1771TIP3    H226873   6.960   4.887   7.916 -2.1112  0.7856 -0.1479
 1772TIP3   OH226874   0.858   0.558   0.722 -0.4948 -0.0839 -0.1334
 1772TIP3    H126875   0.868   0.652   0.738  0.1009  0.0157 -0.9876
 1772TIP3    H226876   0.941   0.521   0.752 -0.8250 -0.3781  0.4313
 1773TIP3   OH226877   4.315   1.928   1.382  0.5343 -0.0825 -0.1242
 1773TIP3    H126878   4.238   1.874   1.364  0.6051 -0.0305 -0.5906
 1773TIP3    H226879   4.289   2.016   1.356  1.5673 -0.4484 -2.7019
 1774TIP3   OH226880   5.766   1.416   7.183  0.9026 -0.2542 -0.2639
 1774TIP3    H126881   5.726   1.502   7.200  2.5032  0.5352 -0.2255
 1774TIP3    H226882   5.770   1.374   7.269  3.3606  1.1813  0.4566
 1775TIP3   OH226883   2.296   6.014   0.556 -0.1439 -0.3727  0.0519
 1775TIP3    H126884   2.373   6.014   0.499 -1.2266 -0.7352 -1.5054
 1775TIP3    H226885   2.331   6.010   0.645  1.6738  1.7775 -0.4807
 1776TIP3   OH226886   0.616   2.395   0.200 -0.0289  0.2201 -0.7460
 1776TIP3    H126887   0.641   2.337   0.128 -0.5867 -0.7511 -0.1891
 1776TIP3    H226888   0.546   2.450   0.164 -2.6125 -2.4258 -0.1405
 1777TIP3   OH226889   2.613   6.568   0.373  0.8247 -0.4825 -0.2761
 1777TIP3    H126890   2.658   6.584   0.456 -1.0524  1.5361  0.4597
 1777TIP3    H226891   2.659   6.624   0.310  1.5391 -1.1516 -0.3630
 1778TIP3   OH226892   6.531   6.311   2.210  0.3140 -0.0175  0.1409
 1778TIP3    H126893   6.485   6.263   2.141  0.1273  0.4804 -0.0874
 1778TIP3    H226894   6.483   6.289   2.290 -1.5051  1.9020 -0.3266
 1779TIP3   OH226895   2.366   2.768   8.385 -0.4936  0.2615  0.2782
 1779TIP3    H126896   2.383   2.692   8.329 -0.2024  0.2026  0.4413
 1779TIP3    H226897   2.415   2.749   8.466 -1.4961  0.0033  0.8368
 1780TIP3   OH226898   5.271   4.472   2.564 -0.0450  0.7544 -0.7365
 1780TIP3    H126899   5.309   4.384   2.573 -0.4590  0.5127 -1.3120
 1780TIP3    H226900   5.191   4.459   2.514 -1.0466  1.2176  0.6519
 1781TIP3   OH226901   0.762   1.745   2.225 -0.3870 -0.3797  0.2073
 1781TIP3    H126902   0.803   1.659   2.234  0.1840  0.0300  1.9283
 1781TIP3    H226903   0.822   1.794   2.169 -0.0199 -0.6859  0.3294
 1782TIP3   OH226904   1.203   6.310   2.225 -0.1868 -0.7300 -0.6198
 1782TIP3    H126905   1.266   6.326   2.155  0.2356  0.2764 -0.0301
 1782TIP3    H226906   1.119   6.300   2.180  0.1088 -0.3175 -1.2754
 1783TIP3   OH226907   3.541   3.289   1.611 -0.2855  0.2999 -0.2684
 1783TIP3    H126908   3.584   3.248   1.537  0.2313  1.9986 -0.9711
 1783TIP3    H226909   3.459   3.241   1.622  0.3436 -0.9549 -0.9362
 1784TIP3   OH226910   0.793   4.964   6.972 -0.3487  0.5247  0.0969
 1784TIP3    H126911   0.767   4.878   7.005 -1.3416  0.4680 -0.7709
 1784TIP3    H226912   0.722   4.989   6.912  0.7454  1.1850 -0.9671
 1785TIP3   OH226913   5.411   1.790   7.662 -0.3275  0.9515 -0.5781
 1785TIP3    H126914   5.404   1.734   7.585  0.3221 -1.3857  0.9842
 1785TIP3    H226915   5.327   1.779   7.708 -0.0961  1.0528 -0.1214
 1786TIP3   OH226916   3.259   1.139   2.635  0.0316 -0.0545 -0.2524
 1786TIP3    H126917   3.242   1.216   2.581  0.9089  0.2052 -0.1665
 1786TIP3    H226918   3.225   1.162   2.722  0.1537  0.1753 -0.2663
 1787TIP3   OH226919   5.898   3.286   2.522 -0.8301  0.1613  0.4130
 1787TIP3    H126920   5.940   3.326   2.446 -0.3080 -0.1545  0.5311
 1787TIP3    H226921   5.882   3.195   2.496  1.2218 -0.5281  1.3723
 1788TIP3   OH226922   3.680   3.505   7.185 -0.0144 -0.4294  0.5064
 1788TIP3    H126923   3.682   3.594   7.151  0.6154 -1.5140 -2.5932
 1788TIP3    H226924   3.595   3.499   7.231 -0.5608  1.4162 -0.1752
 1789TIP3   OH226925   0.770   1.837   8.411  0.7291  0.5531  0.0244
 1789TIP3    H126926   0.675   1.849   8.418  0.9096  3.3130 -0.7654
 1789TIP3    H226927   0.806   1.876   8.490  1.2343 -0.4974  0.3326
 1790TIP3   OH226928   2.402   5.764   0.993 -0.5033 -0.1096 -0.4274
 1790TIP3    H126929   2.376   5.672   0.996 -0.7018 -0.0325  0.2499
 1790TIP3    H226930   2.494   5.762   0.967 -0.3560 -0.5190  0.1217
 1791TIP3   OH226931   4.671   2.244   1.172  0.0339  0.3874  0.2762
 1791TIP3    H126932   4.597   2.295   1.138  0.3553  1.3047  0.9046
 1791TIP3    H226933   4.683   2.174   1.109  0.3928  1.8194 -1.3125
 1792TIP3   OH226934   5.327   1.389   0.299  0.0562 -0.5598 -0.3067
 1792TIP3    H126935   5.357   1.470   0.338 -0.2919  0.0876 -1.3418
 1792TIP3    H226936   5.297   1.336   0.373  3.6577 -1.2901  0.8314
 1793TIP3   OH226937   3.425   4.431   1.688  0.1457 -0.2502  0.6204
 1793TIP3    H126938   3.383   4.443   1.603  0.6919 -1.1654  0.2028
 1793TIP3    H226939   3.364   4.375   1.736  1.0728 -2.0143 -0.1723
 1794TIP3   OH226940   4.802   4.829   2.713  0.4603  0.0785  0.3256
 1794TIP3    H126941   4.758   4.913   2.700 -0.6762 -0.7954 -2.2021
 1794TIP3    H226942   4.731   4.768   2.735  1.1148 -0.4469  1.0111
 1795TIP3   OH226943   0.225   6.056   2.577  0.3365 -0.0418 -0.3007
 1795TIP3    H126944   0.153   5.994   2.584 -0.3954  0.9627  3.1940
 1795TIP3    H226945   0.291   6.010   2.526 -1.2095 -2.6143 -0.1635
 1796TIP3   OH226946   5.209   3.441   1.458  0.1158 -0.0216 -0.4650
 1796TIP3    H126947   5.216   3.536   1.448  1.0983  0.1903  1.7086
 1796TIP3    H226948   5.271   3.406   1.394 -0.4302  0.7576 -1.4567
 1797TIP3   OH226949   1.286   1.143   2.807  0.8046  0.1449 -0.5520
 1797TIP3    H126950   1.230   1.079   2.764 -1.3377  1.2578  0.4505
 1797TIP3    H226951   1.267   1.133   2.900  1.9369  0.8766 -0.2215
 1798TIP3   OH226952   2.171   6.250   2.598 -0.0476 -0.2336  0.0122
 1798TIP3    H126953   2.158   6.306   2.675 -0.3691 -2.1549  1.4171
 1798TIP3    H226954   2.087   6.250   2.553  0.2003  1.0624 -0.4876
 1799TIP3   OH226955   1.370   5.609   8.363 -0.3533 -0.4009 -0.0602
 1799TIP3    H126956   1.346   5.615   8.270 -0.5489  0.0438  0.0216
 1799TIP3    H226957   1.311   5.541   8.398  0.2478 -1.1345 -0.4309
 1800TIP3   OH226958   5.635   4.755   8.122 -0.3871 -0.0850 -0.9475
 1800TIP3    H126959   5.613   4.725   8.210  0.4955  2.2535  0.1411
 1800TIP3    H226960   5.725   4.725   8.108 -0.0794  0.6161 -0.5189
 1801TIP3   OH226961   1.933   0.896   1.327 -0.5536 -0.0326  0.2599
 1801TIP3    H126962   1.898   0.812   1.299  0.4866 -0.1915 -0.5955
 1801TIP3    H226963   1.958   0.941   1.246  1.7082 -0.1464  0.8198
 1802TIP3   OH226964   5.640   0.169   0.540  0.2365  0.3433 -0.7131
 1802TIP3    H126965   5.681   0.083   0.543  0.6823  0.5664  0.1221
 1802TIP3    H226966   5.696   0.220   0.480  0.2082  0.1692 -0.8877
 1803TIP3   OH226967   4.453   4.866   1.118  0.0455  0.3888 -0.5573
 1803TIP3    H126968   4.361   4.891   1.131  0.9317  3.3100  1.1007
 1803TIP3    H226969   4.477   4.907   1.035 -0.0031  0.0545 -0.7383
 1804TIP3   OH226970   3.576   2.866   0.272 -0.3912  0.0608 -0.5431
 1804TIP3    H126971   3.655   2.844   0.322  0.3552 -1.1066 -2.1499
 1804TIP3    H226972   3.591   2.956   0.243  0.1789 -0.0291 -0.5393
 1805TIP3   OH226973   5.717   4.440   8.146 -0.1544  0.2256 -0.2290
 1805TIP3    H126974   5.801   4.459   8.104  0.3807 -0.2961  0.5812
 1805TIP3    H226975   5.652   4.458   8.078  0.7461 -1.8790 -1.7437
 1806TIP3   OH226976   4.356   4.595   0.553 -0.7861 -0.4339  0.4714
 1806TIP3    H126977   4.445   4.579   0.584 -0.4852  1.0715  0.4987
 1806TIP3    H226978   4.314   4.643   0.625  0.0425  3.4833 -1.3564
 1807TIP3   OH226979   5.442   2.509   0.298  0.3139  0.1750  0.6785
 1807TIP3    H126980   5.427   2.603   0.293  1.4144  0.3408  0.3054
 1807TIP3    H226981   5.443   2.489   0.391 -3.1616 -0.0418  0.8005
 1808TIP3   OH226982   3.384   4.171   8.232 -0.0112  0.1099  0.4495
 1808TIP3    H126983   3.462   4.121   8.209  0.3356  0.8801 -0.0688
 1808TIP3    H226984   3.416   4.242   8.287 -0.1596  1.1413 -0.7629
 1809TIP3   OH226985   3.871   6.418   1.919  0.4377  0.2210  0.1242
 1809TIP3    H126986   3.871   6.500   1.968  1.7489  1.1812 -1.3500
 1809TIP3    H226987   3.962   6.409   1.888  0.2358 -1.6133 -0.0483
 1810TIP3   OH226988   3.127   2.747   2.528 -0.1750 -0.2916  0.0300
 1810TIP3    H126989   3.082   2.665   2.507 -0.9562  0.4879 -1.5214
 1810TIP3    H226990   3.136   2.791   2.443 -3.1919  2.9424  1.1520
 1811TIP3   OH226991   0.141   4.592   7.326  0.1464 -0.2886  0.6025
 1811TIP3    H126992   0.192   4.593   7.406  0.3717 -0.3038  0.4583
 1811TIP3    H226993   0.125   4.684   7.306  1.7667 -0.1862 -0.4070
 1812TIP3   OH226994   1.249   4.492   0.401 -0.7529  0.4944  0.2124
 1812TIP3    H126995   1.288   4.421   0.352 -1.5763 -0.2052  0.5353
 1812TIP3    H226996   1.297   4.570   0.374  1.5619 -0.4483  1.3796
 1813TIP3   OH226997   1.020   1.111   1.230  0.0633  0.1627 -0.3814
 1813TIP3    H126998   1.043   1.019   1.219 -2.1230 -0.2455 -2.0150
 1813TIP3    H226999   1.053   1.154   1.151  0.2998  0.6329 -0.0355
 1814TIP3   OH227000   1.648   4.473   0.612  0.7391 -0.6738 -0.1153
 1814TIP3    H127001   1.679   4.447   0.699 -0.4490 -1.5122  0.0963
 1814TIP3    H227002   1.611   4.560   0.624  1.0812 -0.5614  0.1026
 1815TIP3   OH227003   3.944   1.573   7.007 -0.2488 -0.0488 -0.7138
 1815TIP3    H127004   3.979   1.661   6.995 -0.2557 -0.0922 -1.0628
 1815TIP3    H227005   3.974   1.524   6.931  0.8523 -0.7119  0.1162
 1816TIP3   OH227006   6.010   0.734   2.224  0.6528  0.0228 -0.0078
 1816TIP3    H127007   6.065   0.750   2.148  0.1542 -2.0137 -0.8649
 1816TIP3    H227008   6.071   0.730   2.298  1.5475 -1.0634 -0.7720
 1817TIP3   OH227009   0.526   1.796   2.123  0.0538  0.1947  0.2693
 1817TIP3    H127010   0.467   1.774   2.195 -1.0031 -0.9521 -0.8907
 1817TIP3    H227011   0.613   1.778   2.157 -0.4047 -0.1411  1.3166
 1818TIP3   OH227012   3.135   5.575   0.967  0.1762 -0.2195 -0.3364
 1818TIP3    H127013   3.082   5.590   0.889  1.6365 -2.2956 -1.8538
 1818TIP3    H227014   3.226   5.587   0.938  0.7532 -0.8813  1.0669
 1819TIP3   OH227015   3.807   1.486   2.056 -0.2496  0.2560  0.0582
 1819TIP3    H127016   3.834   1.532   1.977 -1.8970 -0.1707 -0.7924
 1819TIP3    H227017   3.889   1.450   2.092  0.6586  1.3213 -0.8501
 1820TIP3   OH227018   4.628   1.487   7.848  0.6781 -0.0654  0.3803
 1820TIP3    H127019   4.571   1.425   7.802 -1.2415  1.0609  1.1559
 1820TIP3    H227020   4.670   1.434   7.917 -1.4647 -0.4288  1.4931
 1821TIP3   OH227021   0.813   0.802   2.385  0.1045 -0.0225  0.3488
 1821TIP3    H127022   0.806   0.754   2.302 -0.2952 -0.8538  0.8401
 1821TIP3    H227023   0.906   0.799   2.407  0.3257  0.8355 -0.4178
 1822TIP3   OH227024   3.221   0.391   0.607  0.3118  0.3850  0.4211
 1822TIP3    H127025   3.205   0.436   0.524  1.9094  0.6975  0.2668
 1822TIP3    H227026   3.238   0.300   0.582 -1.8407 -0.1472  0.6532
 1823TIP3   OH227027   0.872   2.963   7.503  0.4324 -0.2095 -0.3132
 1823TIP3    H127028   0.960   2.929   7.488  0.9356  0.6730  0.5653
 1823TIP3    H227029   0.879   3.057   7.489 -0.5924 -0.2387 -1.1506
 1824TIP3   OH227030   6.380   2.245   1.513 -0.5585 -0.3490 -0.4863
 1824TIP3    H127031   6.389   2.293   1.595  1.2353 -2.1149  0.4601
 1824TIP3    H227032   6.429   2.297   1.450 -0.8981  0.4092 -0.1293
 1825TIP3   OH227033   6.355   1.809   0.423  0.2428  0.5633 -0.2622
 1825TIP3    H127034   6.395   1.764   0.497  1.6027  0.2181 -1.1795
 1825TIP3    H227035   6.403   1.777   0.347 -0.5023  1.6230 -1.2014
 1826TIP3   OH227036   5.067   2.686   8.136  0.5223 -0.1022 -0.5290
 1826TIP3    H127037   5.125   2.658   8.065  1.9569  0.8799  0.1890
 1826TIP3    H227038   5.116   2.756   8.180 -1.5082  1.2347 -0.2752
 1827TIP3   OH227039   5.650   0.387   7.644 -0.5127 -0.3770 -0.2006
 1827TIP3    H127040   5.620   0.299   7.622  0.2812 -0.6378 -0.2583
 1827TIP3    H227041   5.718   0.406   7.579 -0.8389  0.3798 -0.3421
 1828TIP3   OH227042   4.371   3.972   2.551  1.0224 -0.5162  0.2710
 1828TIP3    H127043   4.300   3.915   2.579  2.1950 -1.0967  2.2665
 1828TIP3    H227044   4.377   4.039   2.620  0.9734  0.8659 -1.0137
 1829TIP3   OH227045   0.500   0.106   1.056  0.0393  0.2478 -0.1054
 1829TIP3    H127046   0.498   0.101   0.961  2.6378  0.9281 -0.2760
 1829TIP3    H227047   0.588   0.078   1.080 -0.1181  1.3327  1.9862
 1830TIP3   OH227048   3.286   4.609   7.075  0.4789  0.2044 -0.2662
 1830TIP3    H127049   3.314   4.672   7.009  0.6821  0.4859  0.0894
 1830TIP3    H227050   3.271   4.661   7.154 -0.4072 -0.0295 -0.2658
 1831TIP3   OH227051   5.366   1.470   2.028 -0.3370  0.4047 -0.2694
 1831TIP3    H127052   5.325   1.555   2.047 -0.7501 -0.1170  1.2777
 1831TIP3    H227053   5.333   1.412   2.096  2.6276 -0.1559  0.8264
 1832TIP3   OH227054   1.247   5.992   2.188  0.1667 -0.0211 -0.7044
 1832TIP3    H127055   1.195   5.926   2.234 -1.6903  3.5440  2.9365
 1832TIP3    H227056   1.182   6.047   2.144  0.8952  2.7395  1.3913
 1833TIP3   OH227057   5.758   0.936   1.818 -0.5486  0.5946  0.2354
 1833TIP3    H127058   5.682   0.994   1.825 -3.0558 -2.6377  2.6628
 1833TIP3    H227059   5.821   0.972   1.881 -0.5783  2.5327 -0.7822
 1834TIP3   OH227060   5.173   3.356   0.013 -0.0595 -0.5062 -0.2773
 1834TIP3    H127061   5.189   3.450   0.007 -2.8789  0.1127  0.3555
 1834TIP3    H227062   5.181   3.325  -0.077  0.5215  0.3844 -0.5509
 1835TIP3   OH227063   4.144   0.773   7.025 -0.5238 -0.2604  0.4563
 1835TIP3    H127064   4.195   0.693   7.014 -1.5875 -1.3517  2.6487
 1835TIP3    H227065   4.053   0.745   7.014 -0.9357  0.5447  1.6341
 1836TIP3   OH227066   6.449   0.230   3.292 -0.4760 -0.3198 -0.1286
 1836TIP3    H127067   6.513   0.192   3.353  1.7823  1.9455 -0.9042
 1836TIP3    H227068   6.485   0.212   3.205 -0.4753  1.5487 -0.5588
 1837TIP3   OH227069   4.972   1.062   6.574 -0.3355  0.9445 -0.4345
 1837TIP3    H127070   5.062   1.080   6.547  0.5996 -0.3376  1.5758
 1837TIP3    H227071   4.966   0.967   6.580 -1.3753  1.0504  0.7953
 1838TIP3   OH227072   3.808   4.097   0.421  0.0756  0.2937  0.4022
 1838TIP3    H127073   3.815   4.160   0.349 -1.6083 -0.5250 -0.5351
 1838TIP3    H227074   3.714   4.096   0.443 -0.0674 -2.3784 -0.0855
 1839TIP3   OH227075   3.531   1.528   7.329  0.1303 -0.0868  0.2544
 1839TIP3    H127076   3.591   1.523   7.255 -2.9513  0.4897 -2.5773
 1839TIP3    H227077   3.483   1.445   7.327 -0.2938  0.1150  1.3540
 1840TIP3   OH227078   4.225   4.892   1.782 -0.4897  0.2258 -0.8618
 1840TIP3    H127079   4.192   4.841   1.856 -2.8179  0.6693 -1.4942
 1840TIP3    H227080   4.238   4.980   1.818  1.2213 -0.2075 -0.3365
 1841TIP3   OH227081   4.765   2.012   1.911 -0.1226 -0.6530 -0.3306
 1841TIP3    H127082   4.773   2.031   2.005 -0.1794 -0.2199 -0.4106
 1841TIP3    H227083   4.675   1.983   1.901 -0.6180  0.8823 -0.5119
 1842TIP3   OH227084   3.797   2.827   1.085 -0.2730 -0.3348  0.2149
 1842TIP3    H127085   3.801   2.748   1.031  0.8884 -0.6924  0.7887
 1842TIP3    H227086   3.881   2.870   1.070 -0.9150  0.8447 -0.1419
 1843TIP3   OH227087   2.001   2.681   3.105  0.4399 -0.0449  0.4414
 1843TIP3    H127088   2.011   2.745   3.034  0.9524  1.6491  1.9432
 1843TIP3    H227089   2.031   2.598   3.068  4.4053  1.4867 -0.2965
 1844TIP3   OH227090   6.613   5.092   6.953 -0.2861  0.4720 -0.4826
 1844TIP3    H127091   6.557   5.024   6.990 -0.7232 -0.1416 -2.1729
 1844TIP3    H227092   6.555   5.141   6.895  0.1685  1.9482  0.2822
 1845TIP3   OH227093   6.573   2.450   1.464 -0.0381 -0.6350  0.0213
 1845TIP3    H127094   6.603   2.515   1.401  0.4540 -0.1644  0.7267
 1845TIP3    H227095   6.638   2.453   1.534 -1.5714  0.1853  1.4516
 1846TIP3   OH227096   5.869   3.660   7.317 -0.5937 -0.1841  0.0803
 1846TIP3    H127097   5.950   3.707   7.298 -1.0199  0.8839  0.8241
 1846TIP3    H227098   5.809   3.687   7.248  0.0596 -2.0954 -1.3421
 1847TIP3   OH227099   5.673   1.674   7.269  0.4311 -0.0544 -0.3910
 1847TIP3    H127100   5.688   1.705   7.359  0.0378 -1.2040  0.0918
 1847TIP3    H227101   5.703   1.747   7.214 -1.8545  1.8416  0.6737
 1848TIP3   OH227102   0.301   5.967   7.058 -0.2168  0.1267 -0.4973
 1848TIP3    H127103   0.376   5.916   7.027 -0.4597 -0.3994 -0.2215
 1848TIP3    H227104   0.341   6.044   7.100  0.1583 -0.0115 -0.5926
 1849TIP3   OH227105   3.353   3.946   2.053  0.0134 -0.0086  0.2533
 1849TIP3    H127106   3.390   4.034   2.063  0.6554 -0.4114  1.6992
 1849TIP3    H227107   3.265   3.961   2.020 -0.0692  1.2232  0.9721
 1850TIP3   OH227108   0.673   1.984   2.377  0.0003  0.0738  0.4149
 1850TIP3    H127109   0.692   1.986   2.471  0.7175  1.5907  0.2594
 1850TIP3    H227110   0.709   1.900   2.348 -0.6445 -0.6224  1.5652
 1851TIP3   OH227111   3.439   3.754   1.128 -0.0608  0.1338 -0.2757
 1851TIP3    H127112   3.472   3.842   1.146  1.6713 -0.1820 -1.6183
 1851TIP3    H227113   3.511   3.696   1.153 -0.1664 -0.7068 -1.7985
 1852TIP3   OH227114   1.253   3.660   1.555 -0.6776  0.3688  0.3402
 1852TIP3    H127115   1.263   3.745   1.599 -0.1486  0.9280 -0.8037
 1852TIP3    H227116   1.335   3.649   1.507 -0.9094 -0.6102  0.1571
 1853TIP3   OH227117   5.449   3.189   8.547 -0.5371 -0.0591  0.3967
 1853TIP3    H127118   5.529   3.210   8.499 -1.8111  0.3496 -1.6876
 1853TIP3    H227119   5.428   3.269   8.595  0.7213 -0.4456  1.6275
 1854TIP3   OH227120   6.073   2.756   0.537 -0.2614 -0.2282 -0.1743
 1854TIP3    H127121   6.153   2.781   0.584  0.3372  1.0560 -1.7628
 1854TIP3    H227122   6.081   2.801   0.453 -3.3553  1.1287  0.1280
 1855TIP3   OH227123   2.000   3.202   0.669  0.3232 -0.1819 -0.0332
 1855TIP3    H127124   1.966   3.119   0.634  0.0240 -0.5668  1.1379
 1855TIP3    H227125   2.026   3.182   0.759 -2.2840  1.5602  1.2708
 1856TIP3   OH227126   1.969   0.608   7.273  0.0506  0.0481 -0.6254
 1856TIP3    H127127   1.900   0.580   7.334  1.0552  0.6274  0.8586
 1856TIP3    H227128   2.031   0.657   7.328  1.3371  0.0676 -2.0131
 1857TIP3   OH227129   4.763   3.180   0.679 -0.4669  0.6173 -0.7004
 1857TIP3    H127130   4.692   3.191   0.742 -0.8879  1.6559 -1.3266
 1857TIP3    H227131   4.826   3.249   0.701 -0.3116  0.5771 -1.0051
 1858TIP3   OH227132   6.193   6.070   1.157 -0.0957 -0.4708  0.0634
 1858TIP3    H127133   6.206   6.164   1.169  1.6593 -0.6352 -0.3536
 1858TIP3    H227134   6.131   6.063   1.084 -1.8347  0.3546  1.3975
 1859TIP3   OH227135   5.946   1.221   0.610 -0.5368  0.3028 -0.2737
 1859TIP3    H127136   5.992   1.256   0.534  0.3152 -0.2908 -0.0481
 1859TIP3    H227137   5.986   1.264   0.685  0.3879 -0.9628 -0.0064
 1860TIP3   OH227138   5.110   4.477   7.383 -0.5731  0.4705 -0.2613
 1860TIP3    H127139   5.067   4.416   7.442 -0.2533  0.0277 -0.4824
 1860TIP3    H227140   5.131   4.553   7.438  2.7195 -1.2269  1.0894
 1861TIP3   OH227141   6.637   5.134   1.502 -0.3603 -0.0097 -0.3220
 1861TIP3    H127142   6.657   5.127   1.409 -0.3797 -1.3549 -0.2437
 1861TIP3    H227143   6.688   5.064   1.543 -1.6517 -0.5200  0.4599
 1862TIP3   OH227144   3.734   5.194   1.462  0.3634  0.4772 -0.6435
 1862TIP3    H127145   3.728   5.098   1.461 -0.3871  0.5105  0.3009
 1862TIP3    H227146   3.650   5.224   1.428 -0.1493  0.8071  0.8471
 1863TIP3   OH227147   5.202   2.735   8.564  0.2387  0.3802 -0.5818
 1863TIP3    H127148   5.205   2.831   8.563  1.4996  0.3641 -0.0058
 1863TIP3    H227149   5.175   2.713   8.653  1.1052  0.1979 -0.3531
 1864TIP3   OH227150   2.862   5.283   0.999 -0.7939  0.1894 -0.9481
 1864TIP3    H127151   2.887   5.244   1.083  0.5903 -1.0808 -1.8985
 1864TIP3    H227152   2.870   5.211   0.936 -3.0969  0.7713 -1.9786
 1865TIP3   OH227153   3.405   4.526   7.711 -0.1237 -0.6939  0.4215
 1865TIP3    H127154   3.453   4.498   7.633 -1.2321 -1.8306  0.0990
 1865TIP3    H227155   3.447   4.480   7.783  2.2589  1.9586  0.8802
 1866TIP3   OH227156   0.667   0.590   7.561  0.4380  0.4162 -0.5691
 1866TIP3    H127157   0.618   0.590   7.479  0.3090  1.0541 -0.4925
 1866TIP3    H227158   0.602   0.571   7.629  0.6244 -0.5837 -0.6519
 1867TIP3   OH227159   4.831   3.804   0.124  0.0126 -0.1178  0.1157
 1867TIP3    H127160   4.765   3.871   0.102  0.4710 -0.2148 -1.7655
 1867TIP3    H227161   4.814   3.734   0.061  1.4258 -0.4701  0.1057
 1868TIP3   OH227162   0.139   5.164   8.144  0.2349 -0.4029  0.5734
 1868TIP3    H127163   0.106   5.216   8.071 -0.1093 -2.2947 -0.6848
 1868TIP3    H227164   0.140   5.225   8.218 -2.5666  0.7395 -0.1874
 1869TIP3   OH227165   0.609   3.486   7.503  0.1109  0.2815  0.6687
 1869TIP3    H127166   0.671   3.504   7.433 -0.4552 -1.9058 -0.4955
 1869TIP3    H227167   0.562   3.569   7.516  1.0208  1.0530 -0.7125
 1870TIP3   OH227168   2.818   6.408   7.937 -0.5023 -0.0071  0.2964
 1870TIP3    H127169   2.880   6.376   8.002 -1.9945 -1.3718  1.1097
 1870TIP3    H227170   2.826   6.346   7.864 -0.4780  0.1747  0.1431
 1871TIP3   OH227171   4.603   5.852   0.572  0.3244  0.1960  0.3359
 1871TIP3    H127172   4.554   5.770   0.558  0.1360  0.0482  1.7482
 1871TIP3    H227173   4.676   5.846   0.510  0.0473 -0.8149  0.0728
 1872TIP3   OH227174   2.242   4.996   0.110  0.7688  0.0020  0.2712
 1872TIP3    H127175   2.278   4.940   0.041 -0.2205 -2.0965  1.3665
 1872TIP3    H227176   2.219   5.078   0.065  2.2371 -0.4516 -1.3990
 1873TIP3   OH227177   2.087   3.731   1.312 -0.6340  0.3910 -0.1903
 1873TIP3    H127178   2.079   3.817   1.355 -2.1708  0.6135 -0.8552
 1873TIP3    H227179   2.136   3.678   1.375 -0.8795  1.3543  0.8622
 1874TIP3   OH227180   6.808   1.312   1.488  0.3138 -0.6942  0.3803
 1874TIP3    H127181   6.858   1.394   1.487 -1.0148  0.1392 -0.9275
 1874TIP3    H227182   6.867   1.247   1.451  0.2699  0.4136 -1.7719
 1875TIP3   OH227183   1.111   1.070   0.205  0.4454 -0.7852 -0.2866
 1875TIP3    H127184   1.063   1.129   0.148  0.5384 -0.0203  0.4042
 1875TIP3    H227185   1.092   0.983   0.171 -2.3223 -0.6284  0.5820
 1876TIP3   OH227186   0.071   2.154   6.590 -0.2202  0.0948  0.7095
 1876TIP3    H127187   0.160   2.131   6.564 -0.0973  0.5861  0.6891
 1876TIP3    H227188   0.015   2.093   6.541  0.0890 -0.0333  0.5153
 1877TIP3   OH227189   0.317   5.064   2.458 -0.3505  0.5353  0.1119
 1877TIP3    H127190   0.407   5.088   2.479 -0.3293 -0.1792  0.8954
 1877TIP3    H227191   0.313   5.068   2.362  0.4114  0.9138  0.0867
 1878TIP3   OH227192   6.078   5.798   0.391 -0.3724 -0.1337 -0.5011
 1878TIP3    H127193   5.992   5.812   0.430 -0.5119 -1.3618 -0.3273
 1878TIP3    H227194   6.101   5.882   0.351 -2.0041 -0.0336 -1.2691
 1879TIP3   OH227195   0.466   3.669   7.656 -0.0814 -0.1204  0.0284
 1879TIP3    H127196   0.543   3.717   7.685 -1.3967  1.6882  0.7175
 1879TIP3    H227197   0.406   3.736   7.625 -0.8509 -1.5878 -1.9239
 1880TIP3   OH227198   4.979   5.430   0.124 -0.3829 -0.5678  0.0959
 1880TIP3    H127199   4.989   5.471   0.038 -3.7129 -3.5161 -1.9815
 1880TIP3    H227200   5.052   5.369   0.130 -0.3938 -0.6983 -0.9350
 1881TIP3   OH227201   5.162   3.312   2.081 -0.1401 -0.4236 -0.3547
 1881TIP3    H127202   5.254   3.331   2.099  0.0419 -0.0525 -1.6309
 1881TIP3    H227203   5.126   3.289   2.167  0.7942  0.8236  0.4045
 1882TIP3   OH227204   3.615   5.763   7.649  0.0296  0.4992  0.0697
 1882TIP3    H127205   3.537   5.756   7.594 -0.9776 -1.0889  1.5965
 1882TIP3    H227206   3.666   5.686   7.627 -0.2343  0.0162  1.0983
 1883TIP3   OH227207   6.775   6.643   1.616 -0.1341  0.3789  0.6656
 1883TIP3    H127208   6.689   6.602   1.624  0.1324 -0.7094 -1.4149
 1883TIP3    H227209   6.762   6.732   1.650 -1.9112  0.0480  0.9644
 1884TIP3   OH227210   3.843   6.661   2.078 -0.4009  0.1012  0.1504
 1884TIP3    H127211   3.875   6.721   2.145  0.5338 -3.0345  2.7235
 1884TIP3    H227212   3.766   6.620   2.117  0.7746 -2.5647 -0.1449
 1885TIP3   OH227213   3.540   6.172   7.534 -0.1413 -0.2889 -0.0025
 1885TIP3    H127214   3.472   6.105   7.521  0.1171 -0.7230  0.8687
 1885TIP3    H227215   3.517   6.241   7.471 -1.8915 -0.0348  0.8632
 1886TIP3   OH227216   3.294   6.445   1.166  0.0472  0.4886 -0.2231
 1886TIP3    H127217   3.389   6.456   1.156 -0.0578  1.0868 -0.5921
 1886TIP3    H227218   3.276   6.471   1.256  0.4806 -1.4076  0.4584
 1887TIP3   OH227219   4.892   3.510   7.596  0.5631  0.1050  0.3708
 1887TIP3    H127220   4.928   3.461   7.670  0.4990 -1.9072 -0.8461
 1887TIP3    H227221   4.954   3.494   7.525 -1.6194 -1.8820 -1.2477
 1888TIP3   OH227222   4.185   4.954   0.674 -0.1697 -0.1363 -0.2349
 1888TIP3    H127223   4.255   4.966   0.610  0.8361  0.5341  0.9602
 1888TIP3    H227224   4.228   4.958   0.759 -1.7805  1.5181  0.5970
 1889TIP3   OH227225   5.749   2.784   1.334  0.3040 -0.2620 -0.1238
 1889TIP3    H127226   5.772   2.832   1.254  0.5587  1.4217  0.9142
 1889TIP3    H227227   5.825   2.795   1.391 -0.9357  0.9536  1.3825
 1890TIP3   OH227228   1.727   3.561   7.587  0.3622  0.4178 -0.1247
 1890TIP3    H127229   1.775   3.502   7.645  0.0611  1.1008  0.8346
 1890TIP3    H227230   1.794   3.603   7.534  0.7537  0.7113  0.5993
 1891TIP3   OH227231   6.704   4.838   1.398  1.0090 -0.0048 -0.8497
 1891TIP3    H127232   6.765   4.775   1.437  0.0826  0.1659  0.9439
 1891TIP3    H227233   6.619   4.816   1.435  0.6178  2.1653 -0.3298
 1892TIP3   OH227234   0.777   0.665   0.971 -0.0881  0.2562  0.1548
 1892TIP3    H127235   0.801   0.641   0.882  1.9721 -1.8235  1.1601
 1892TIP3    H227236   0.690   0.628   0.985  0.1310 -0.5473 -0.5832
 1893TIP3   OH227237   6.458   5.846   0.764  0.2866 -0.5041 -0.9097
 1893TIP3    H127238   6.457   5.799   0.680 -2.4083 -0.3312 -1.0584
 1893TIP3    H227239   6.524   5.800   0.816 -1.1320 -3.5571 -1.5806
 1894TIP3   OH227240   1.275   5.499   2.553 -0.0641  0.5564 -0.5212
 1894TIP3    H127241   1.333   5.493   2.477  0.8270  2.5007 -0.0435
 1894TIP3    H227242   1.331   5.477   2.628 -1.1183 -2.1286 -0.4031
 1895TIP3   OH227243   4.513   0.176   1.949 -0.5633 -0.0653 -0.0434
 1895TIP3    H127244   4.478   0.125   2.022 -1.7950 -0.7960 -1.0934
 1895TIP3    H227245   4.588   0.125   1.919 -0.6108 -0.2456  0.1407
 1896TIP3   OH227246   5.538   4.920   0.388 -0.0126  0.8138  0.3823
 1896TIP3    H127247   5.511   4.991   0.446 -0.1446 -0.8291  2.4414
 1896TIP3    H227248   5.634   4.922   0.390 -0.0001  1.4966 -0.3384
 1897TIP3   OH227249   1.700   0.512   1.083  0.7212 -0.3110 -0.0351
 1897TIP3    H127250   1.768   0.466   1.033  1.4246  1.3987 -0.7170
 1897TIP3    H227251   1.692   0.597   1.041 -0.4808  0.2454  1.2396
 1898TIP3   OH227252   6.174   5.873   1.356 -0.5560  0.2363  0.2232
 1898TIP3    H127253   6.180   5.940   1.288 -0.0181  0.2428  0.2680
 1898TIP3    H227254   6.247   5.893   1.415  0.2467 -0.9844 -0.3166
 1899TIP3   OH227255   5.425   2.366   0.027 -0.2421  0.9059  0.0632
 1899TIP3    H127256   5.440   2.419   0.105  0.1200 -0.3113  0.8513
 1899TIP3    H227257   5.499   2.388  -0.031  0.3571  0.6736  0.7213
 1900TIP3   OH227258   6.451   6.368   7.039  0.2119  0.4857  0.3206
 1900TIP3    H127259   6.545   6.351   7.041  0.4602  1.7445 -0.1185
 1900TIP3    H227260   6.439   6.445   7.094 -0.4952  0.6254 -0.0114
 1901TIP3   OH227261   0.645   6.182   8.107  0.5166  0.1294 -0.0600
 1901TIP3    H127262   0.591   6.107   8.128  0.3181  0.6768  1.4896
 1901TIP3    H227263   0.727   6.166   8.154  1.7759 -0.7025 -2.3899
 1902TIP3   OH227264   6.350   3.007   7.638 -0.0826  0.5987 -0.2646
 1902TIP3    H127265   6.339   2.921   7.679  1.0794 -0.5489 -2.2052
 1902TIP3    H227266   6.443   3.027   7.647 -0.5629  2.4618  1.5127
 1903TIP3   OH227267   4.004   6.431   7.142  0.2650 -0.1553 -0.7524
 1903TIP3    H127268   3.940   6.368   7.110  0.2340 -0.7391  0.4095
 1903TIP3    H227269   4.030   6.481   7.064  0.2320 -1.5464 -1.6925
 1904TIP3   OH227270   3.114   5.413   1.317 -0.1797  0.3502  0.1902
 1904TIP3    H127271   3.152   5.356   1.251 -0.4172 -0.3242  0.6254
 1904TIP3    H227272   3.040   5.455   1.273  0.3056  0.7193 -0.2836
 1905TIP3   OH227273   5.226   5.975   2.017 -0.1130  0.1803 -0.2616
 1905TIP3    H127274   5.277   5.919   1.959  0.1017  0.6665 -0.5466
 1905TIP3    H227275   5.138   5.936   2.017  0.2889 -0.7772  0.3943
 1906TIP3   OH227276   1.963   0.893   7.682  0.5080  0.1758  0.7387
 1906TIP3    H127277   2.020   0.880   7.606  2.1302 -0.1078  1.9589
 1906TIP3    H227278   1.989   0.979   7.716 -0.8316  0.7026  0.4746
 1907TIP3   OH227279   4.144   1.340   8.227  0.0905 -0.0948  0.4729
 1907TIP3    H127280   4.102   1.418   8.190  0.0388 -0.0710  0.5810
 1907TIP3    H227281   4.236   1.347   8.201  0.5402  1.0605  2.1982
 1908TIP3   OH227282   0.098   6.845   2.603 -0.4932  0.2451  0.6726
 1908TIP3    H127283   0.102   6.774   2.668 -0.0558  1.3200  1.8563
 1908TIP3    H227284   0.125   6.923   2.651 -1.5420  1.3392 -0.4517
 1909TIP3   OH227285   5.021   0.038   7.806 -0.1322  0.1906 -0.4034
 1909TIP3    H127286   5.007   0.003   7.718 -2.8100  0.8104 -0.2904
 1909TIP3    H227287   5.036   0.131   7.793 -1.7532  0.5135 -0.1850
 1910TIP3   OH227288   4.972   2.365   8.306 -0.1421 -0.2940 -0.9466
 1910TIP3    H127289   5.014   2.387   8.389  0.5800 -0.9204 -1.1263
 1910TIP3    H227290   5.045   2.337   8.250 -0.6163  0.1546 -1.8008
 1911TIP3   OH227291   1.216   1.791   7.822  0.0103 -0.2867 -0.0282
 1911TIP3    H127292   1.258   1.829   7.899  1.1021 -1.4709 -0.0131
 1911TIP3    H227293   1.217   1.861   7.757  1.1001  0.0324  0.3122
 1912TIP3   OH227294   5.986   2.871   1.480  0.1167  0.2498  0.4040
 1912TIP3    H127295   6.027   2.955   1.460  1.7920 -0.4346  0.8313
 1912TIP3    H227296   5.966   2.875   1.574  1.3786 -0.2985  0.7081
 1913TIP3   OH227297   1.339   1.774   2.094 -0.1916  0.3512  0.0078
 1913TIP3    H127298   1.344   1.843   2.160  0.6474 -0.7080  1.0944
 1913TIP3    H227299   1.430   1.750   2.078 -0.4786 -0.5094 -0.3415
 1914TIP3   OH227300   1.125   6.735   8.484 -0.1790  0.3526 -0.0492
 1914TIP3    H127301   1.208   6.783   8.481 -0.4598  0.7880 -1.3828
 1914TIP3    H227302   1.058   6.802   8.474 -0.8498  0.2397  2.7181
 1915TIP3   OH227303   6.384   4.594   1.241 -0.6712 -0.1242  0.4601
 1915TIP3    H127304   6.462   4.559   1.283 -1.1721  0.1565  1.6582
 1915TIP3    H227305   6.317   4.526   1.252 -0.8842  0.0661  0.3605
 1916TIP3   OH227306   0.967   4.883   2.063  0.1634  0.2520  0.4106
 1916TIP3    H127307   1.006   4.800   2.033 -0.0563  0.3394 -0.1302
 1916TIP3    H227308   1.026   4.913   2.132  0.8913  0.2266 -0.1902
 1917TIP3   OH227309   1.152   2.005   0.919 -0.0050  0.2756  0.6468
 1917TIP3    H127310   1.063   1.979   0.894  0.0062  1.2796 -0.5348
 1917TIP3    H227311   1.158   2.097   0.895  1.7304 -0.0645 -0.4258
 1918TIP3   OH227312   5.727   5.961   0.032 -0.2818 -0.8666 -0.1142
 1918TIP3    H127313   5.686   6.041  -0.002  1.8549  0.6849  0.6855
 1918TIP3    H227314   5.728   5.901  -0.042 -0.5830  0.4255 -1.2022
 1919TIP3   OH227315   3.583   1.608   1.177  0.0890 -0.3520 -0.1107
 1919TIP3    H127316   3.595   1.646   1.264 -1.9200  0.1311 -0.0046
 1919TIP3    H227317   3.504   1.554   1.185 -1.0600  0.9624 -2.0206
 1920TIP3   OH227318   0.589   0.895   3.160  0.0717  0.0702 -0.3162
 1920TIP3    H127319   0.551   0.978   3.130  2.0581  1.4277  0.6495
 1920TIP3    H227320   0.522   0.858   3.218 -0.1993  1.8804  0.5942
 1921TIP3   OH227321   4.692   6.266   1.161  0.2813  1.0458 -0.2649
 1921TIP3    H127322   4.745   6.227   1.231 -1.0825  0.0424  0.2625
 1921TIP3    H227323   4.617   6.304   1.206 -1.1155 -0.4579 -1.2100
 1922TIP3   OH227324   2.645   6.258   1.398  0.4145  0.3934  0.0789
 1922TIP3    H127325   2.596   6.324   1.448 -0.8097 -1.3306  1.2560
 1922TIP3    H227326   2.695   6.211   1.465  1.2919  0.1235 -0.7520
 1923TIP3   OH227327   5.872   2.169   1.655 -0.5094  0.1786 -0.3189
 1923TIP3    H127328   5.877   2.074   1.663  0.0138  0.2511  0.2756
 1923TIP3    H227329   5.870   2.185   1.560  0.7892 -0.3708 -0.4709
 1924TIP3   OH227330   1.324   5.688   2.920 -0.0768 -0.3019 -0.2141
 1924TIP3    H127331   1.398   5.735   2.959  0.1358 -1.6607  1.1181
 1924TIP3    H227332   1.362   5.642   2.845  0.3713 -0.6966  0.2437
 1925TIP3   OH227333   0.564   6.642   7.377 -0.3599 -0.1011  0.3696
 1925TIP3    H127334   0.512   6.574   7.419 -0.7402 -0.3321 -0.4528
 1925TIP3    H227335   0.647   6.641   7.424 -0.3130 -1.2253  0.2821
 1926TIP3   OH227336   1.539   1.681   1.185 -0.7188  0.2110  0.6172
 1926TIP3    H127337   1.566   1.593   1.211 -1.8090  0.5134  3.0013
 1926TIP3    H227338   1.542   1.733   1.265 -1.1721  2.0910 -0.5052
 1927TIP3   OH227339   3.095   5.535   8.453 -0.5933  0.5742  0.1584
 1927TIP3    H127340   3.109   5.588   8.531  0.1494 -0.0668  0.4650
 1927TIP3    H227341   3.064   5.598   8.387 -1.3676  1.0949  0.9929
 1928TIP3   OH227342   4.226   2.545   7.138 -0.4119 -0.1715 -0.3753
 1928TIP3    H127343   4.235   2.453   7.112 -2.6342 -0.4108 -0.4517
 1928TIP3    H227344   4.302   2.561   7.194 -0.9464 -2.6595  1.2418
 1929TIP3   OH227345   4.942   6.555   0.632 -0.4069  0.0671 -0.4169
 1929TIP3    H127346   4.993   6.563   0.713  1.4078 -0.1739 -1.4741
 1929TIP3    H227347   4.853   6.579   0.657 -0.1219 -0.9711  1.8679
 1930TIP3   OH227348   0.100   1.138   1.345 -0.1788  0.6422 -0.5144
 1930TIP3    H127349   0.188   1.159   1.314  0.3816 -0.4790  0.2605
 1930TIP3    H227350   0.113   1.067   1.407 -1.7140 -0.0696 -0.9628
 1931TIP3   OH227351   2.063   5.488   2.566  0.6655  0.1624 -0.3082
 1931TIP3    H127352   2.126   5.545   2.610  1.5928 -0.9350 -0.1504
 1931TIP3    H227353   2.097   5.480   2.477 -1.6783  3.0910 -1.6157
 1932TIP3   OH227354   5.263   2.141   0.068  0.3906  0.2326  0.2094
 1932TIP3    H127355   5.225   2.179   0.147  1.6403  1.1480  0.3979
 1932TIP3    H227356   5.324   2.207   0.037  0.3612 -0.3697 -1.1975
 1933TIP3   OH227357   4.387   4.781   7.697  0.2757 -0.7763  0.0120
 1933TIP3    H127358   4.344   4.774   7.782  1.1274 -1.2470  0.4149
 1933TIP3    H227359   4.425   4.694   7.682  1.8402 -0.1452  0.0915
 1934TIP3   OH227360   4.003   2.361   0.861 -0.3817  0.2393 -0.1873
 1934TIP3    H127361   3.973   2.296   0.797 -0.1234 -0.0064 -0.0619
 1934TIP3    H227362   4.079   2.402   0.820  0.1491 -0.3323  0.1991
 1935TIP3   OH227363   4.447   5.721   2.047 -0.1281 -0.2508 -0.1608
 1935TIP3    H127364   4.522   5.748   2.101  1.1705  0.8954 -2.4085
 1935TIP3    H227365   4.467   5.754   1.960 -3.2902  0.0814 -0.8718
 1936TIP3   OH227366   0.516   6.604   2.053 -0.3129 -0.0076  0.0654
 1936TIP3    H127367   0.475   6.625   1.969 -0.3031 -0.6903 -0.1134
 1936TIP3    H227368   0.605   6.639   2.045 -0.7581  1.2464  0.3583
 1937TIP3   OH227369   4.605   3.824   1.952  0.4724 -0.3370  0.1961
 1937TIP3    H127370   4.541   3.821   1.882 -0.0980  0.7800  0.6470
 1937TIP3    H227371   4.662   3.897   1.930  3.0478 -2.6090 -1.3631
 1938TIP3   OH227372   4.655   1.960   2.368  0.6625 -0.8469  0.3595
 1938TIP3    H127373   4.692   2.000   2.447 -1.5652  1.0970  0.5176
 1938TIP3    H227374   4.703   1.999   2.296  1.8093 -1.6412  0.6608
 1939TIP3   OH227375   0.781   1.126   1.576  0.4645 -0.2234 -0.3163
 1939TIP3    H127376   0.770   1.042   1.621 -0.4996  1.3270  2.5214
 1939TIP3    H227377   0.814   1.185   1.642 -1.1367  2.2496 -1.5683
 1940TIP3   OH227378   1.119   0.689   7.369  0.0096  0.1894  0.3808
 1940TIP3    H127379   1.034   0.731   7.382 -0.8052 -1.2009 -0.2239
 1940TIP3    H227380   1.104   0.625   7.300  1.2508 -0.9432  1.1149
 1941TIP3   OH227381   6.333   4.687   0.101  0.2756 -0.0823  0.0910
 1941TIP3    H127382   6.426   4.689   0.078  0.4919  1.9409  0.9409
 1941TIP3    H227383   6.291   4.643   0.027  1.6609  0.7496 -1.2419
 1942TIP3   OH227384   1.713   5.110   8.405  0.5089 -0.2788  0.3221
 1942TIP3    H127385   1.798   5.153   8.409  0.5106 -0.3632  1.2348
 1942TIP3    H227386   1.656   5.173   8.361  0.3723  0.9097  2.1213
 1943TIP3   OH227387   2.283   5.406   0.354 -0.4426 -0.0546  0.8924
 1943TIP3    H127388   2.213   5.363   0.306 -0.5887 -0.4623  1.4555
 1943TIP3    H227389   2.238   5.459   0.420 -0.3516  2.4394 -0.9183
 1944TIP3   OH227390   4.948   0.305   8.377 -0.1196  0.1328  0.1814
 1944TIP3    H127391   5.010   0.364   8.334 -0.1479  1.5706  1.9785
 1944TIP3    H227392   4.947   0.334   8.469  0.6075 -3.3284  1.4155
 1945TIP3   OH227393   5.324   3.518   1.873  0.4848  0.0223 -0.0974
 1945TIP3    H127394   5.346   3.475   1.956  1.4852 -1.3238 -1.0166
 1945TIP3    H227395   5.392   3.489   1.812  0.1710  1.5269 -1.2355
 1946TIP3   OH227396   4.467   5.845   6.964  0.6333  0.4720 -0.0875
 1946TIP3    H127397   4.383   5.890   6.967  1.4512  2.0615  0.7961
 1946TIP3    H227398   4.525   5.899   7.019  1.9433 -1.1720  0.2367
 1947TIP3   OH227399   5.348   4.034   7.410  0.5356 -0.4455  0.2991
 1947TIP3    H127400   5.364   3.975   7.483 -1.6524 -0.5258  0.7962
 1947TIP3    H227401   5.374   3.984   7.332  0.4920 -1.3353  0.8489
 1948TIP3   OH227402   2.321   5.082   2.220 -0.2649 -0.5656 -0.0975
 1948TIP3    H127403   2.275   5.048   2.143  0.6498  1.3128 -1.5693
 1948TIP3    H227404   2.410   5.050   2.211  0.1618  0.6857 -0.5516
 1949TIP3   OH227405   6.843   5.956   7.997  0.5015  0.1881  0.2625
 1949TIP3    H127406   6.914   5.934   7.938  1.2740  0.1471  1.1852
 1949TIP3    H227407   6.798   5.872   8.013 -0.0312  0.2863 -0.6487
 1950TIP3   OH227408   6.240   5.667   2.575  0.1530  0.3205  0.3182
 1950TIP3    H127409   6.257   5.575   2.598  2.3894  1.0543  2.0539
 1950TIP3    H227410   6.318   5.694   2.526 -1.0292  1.0110 -1.2567
 1951TIP3   OH227411   3.689   4.305   2.379  0.4726 -0.1286 -0.2785
 1951TIP3    H127412   3.728   4.280   2.462 -0.0375  0.6563  0.2114
 1951TIP3    H227413   3.594   4.299   2.394  0.3683  0.5707 -0.6252
 1952TIP3   OH227414   3.766   0.960   0.607  0.4269 -0.0875  0.0691
 1952TIP3    H127415   3.715   0.887   0.641 -1.2841  0.5242 -0.9971
 1952TIP3    H227416   3.832   0.920   0.550  0.3596 -0.8580  0.5292
 1953TIP3   OH227417   1.256   6.606   1.596 -0.3147  0.2130  0.2448
 1953TIP3    H127418   1.194   6.536   1.617 -0.4294  0.8792  2.3774
 1953TIP3    H227419   1.202   6.674   1.556 -0.7982  0.3644  1.1233
 1954TIP3   OH227420   6.763   4.401   2.842  0.8923 -0.2634  0.0730
 1954TIP3    H127421   6.737   4.471   2.782 -0.1475 -0.2893  0.4622
 1954TIP3    H227422   6.734   4.321   2.799  2.7819 -0.5598 -0.7404
 1955TIP3   OH227423   0.946   0.554   8.313 -0.4648 -0.8074 -0.6961
 1955TIP3    H127424   1.010   0.599   8.258 -0.3473  0.0778  0.1310
 1955TIP3    H227425   0.869   0.542   8.257  0.7008 -2.7565 -2.0279
 1956TIP3   OH227426   3.375   5.727   0.858  0.3868  0.1022  0.3441
 1956TIP3    H127427   3.453   5.781   0.842  0.7190 -0.2594  0.7018
 1956TIP3    H227428   3.310   5.760   0.797  1.0096  0.0216 -0.3805
 1957TIP3   OH227429   2.209   1.993   8.179 -0.1650  0.5606 -0.5054
 1957TIP3    H127430   2.281   1.932   8.194  0.2534  0.7810 -1.5413
 1957TIP3    H227431   2.207   2.005   8.084  1.0479  3.6826 -0.2556
 1958TIP3   OH227432   5.238   6.063   8.268  0.1141  0.2582  0.1963
 1958TIP3    H127433   5.283   6.137   8.225  0.7958 -0.1683  0.1577
 1958TIP3    H227434   5.163   6.103   8.312 -0.9788  0.6366 -1.8722
 1959TIP3   OH227435   1.779   2.462   0.052 -0.6918 -0.4908 -0.4777
 1959TIP3    H127436   1.869   2.494   0.053 -1.1353  0.7993  0.6589
 1959TIP3    H227437   1.753   2.469  -0.040  0.4906 -1.2972 -0.8966
 1960TIP3   OH227438   5.355   6.596   1.240 -0.1302  0.4356 -0.4217
 1960TIP3    H127439   5.307   6.572   1.161  0.0989  1.4014 -0.8644
 1960TIP3    H227440   5.414   6.666   1.213  0.3461  0.4125  0.4882
 1961TIP3   OH227441   2.954   2.745   1.468  0.5198 -0.0910 -0.2901
 1961TIP3    H127442   2.985   2.655   1.477  1.9678  0.2210 -1.7404
 1961TIP3    H227443   2.872   2.747   1.516  0.9645 -1.9193  0.6245
 1962TIP3   OH227444   3.247   0.686   2.886 -0.0613 -0.4874  0.7616
 1962TIP3    H127445   3.203   0.760   2.845 -1.5109 -2.3073 -1.2212
 1962TIP3    H227446   3.340   0.698   2.863  0.1494  1.8356  2.4746
 1963TIP3   OH227447   5.749   4.976   8.261 -0.0110 -0.0710  0.4518
 1963TIP3    H127448   5.702   4.986   8.344 -1.6630 -1.3231 -0.2555
 1963TIP3    H227449   5.696   4.912   8.212 -0.3331  2.2257 -2.4532
 1964TIP3   OH227450   4.075   6.460   1.412  0.1024  0.8368  0.3850
 1964TIP3    H127451   4.081   6.544   1.457  0.3554  2.5977 -2.6832
 1964TIP3    H227452   3.989   6.461   1.371 -0.3532 -0.9578  1.2229
 1965TIP3   OH227453   1.837   4.588   8.325  0.1021  0.0557  0.1541
 1965TIP3    H127454   1.876   4.668   8.361  0.8707 -0.5408  0.6809
 1965TIP3    H227455   1.747   4.612   8.304  0.2905  1.0244  0.4172
 1966TIP3   OH227456   4.494   2.944   7.502 -0.7580 -0.0818  0.1202
 1966TIP3    H127457   4.505   2.910   7.413  0.2008 -0.6119  0.4219
 1966TIP3    H227458   4.451   2.873   7.550  0.9456 -0.8153  0.6663
 1967TIP3   OH227459   0.492   2.706   7.528  0.1508 -0.0187 -0.5436
 1967TIP3    H127460   0.521   2.743   7.612 -1.2391 -1.6056  0.7096
 1967TIP3    H227461   0.421   2.764   7.500 -1.1704 -0.9243  0.7683
 1968TIP3   OH227462   3.946   5.215   1.749 -0.0052  0.0570 -0.2525
 1968TIP3    H127463   3.864   5.247   1.712  0.9559  4.5239  0.8054
 1968TIP3    H227464   3.921   5.170   1.830 -1.4732  1.9825  0.4288
 1969TIP3   OH227465   2.481   3.926   1.399  0.1470  0.2729 -0.2042
 1969TIP3    H127466   2.417   3.958   1.462  0.9078  2.7012 -0.5576
 1969TIP3    H227467   2.564   3.965   1.427  0.9789 -0.6863 -1.2330
 1970TIP3   OH227468   3.688   4.850   1.467  0.1098 -1.0614  0.1717
 1970TIP3    H127469   3.599   4.870   1.435  0.1641 -0.7231  0.2229
 1970TIP3    H227470   3.721   4.785   1.405  0.0775 -0.6813 -0.2592
 1971TIP3   OH227471   4.054   1.685   0.019  0.0453  0.4218 -0.2823
 1971TIP3    H127472   4.038   1.653   0.108  0.9119 -0.8024 -0.5389
 1971TIP3    H227473   3.977   1.738  -0.002 -1.1773 -1.0271  0.3875
 1972TIP3   OH227474   5.884   3.428   1.721 -0.4923 -0.8391 -0.1485
 1972TIP3    H127475   5.895   3.492   1.651 -1.0741  1.1885  1.5165
 1972TIP3    H227476   5.973   3.402   1.744 -0.2432 -0.5452 -0.7549
 1973TIP3   OH227477   5.050   3.841   7.371  0.4987 -0.2131  0.3817
 1973TIP3    H127478   5.051   3.745   7.365  0.7343 -0.1951  0.0822
 1973TIP3    H227479   5.043   3.859   7.465 -0.7677 -0.5244  0.3655
 1974TIP3   OH227480   5.977   3.258   0.053  0.2720  0.1268  0.2087
 1974TIP3    H127481   6.032   3.246  -0.024 -2.3909 -2.5246 -1.4923
 1974TIP3    H227482   5.919   3.331   0.032 -0.2211 -0.3713 -0.1828
 1975TIP3   OH227483   5.290   6.511   0.375 -0.1437 -0.0614 -0.5088
 1975TIP3    H127484   5.283   6.587   0.432  0.3595  0.5781 -1.2932
 1975TIP3    H227485   5.216   6.455   0.401 -1.4491  1.3844 -0.9540
 1976TIP3   OH227486   5.391   1.548   0.808  0.0726  0.2777  0.6728
 1976TIP3    H127487   5.455   1.567   0.739  0.4781 -0.0766  0.9442
 1976TIP3    H227488   5.306   1.568   0.768  0.0721 -2.2560 -0.8207
 1977TIP3   OH227489   0.984   1.317   7.167 -0.2799 -0.4210 -0.0780
 1977TIP3    H127490   1.023   1.234   7.194  0.2874 -0.2993 -0.4986
 1977TIP3    H227491   0.981   1.313   7.072 -0.9290 -0.2563 -0.0714
 1978TIP3   OH227492   6.707   2.991   7.319 -0.1195  0.0862  0.1236
 1978TIP3    H127493   6.802   2.994   7.317  0.0105 -1.7455  1.2895
 1978TIP3    H227494   6.679   3.044   7.244  1.7830  0.7761 -0.1411
 1979TIP3   OH227495   2.741   0.774   0.086  0.0679 -0.4769  0.2936
 1979TIP3    H127496   2.685   0.830   0.141  0.9536  2.3890 -1.4762
 1979TIP3    H227497   2.827   0.778   0.127 -0.0297 -1.1827  0.5709
 1980TIP3   OH227498   4.144   2.878   0.206  0.0285 -0.4155  0.1920
 1980TIP3    H127499   4.168   2.791   0.175  0.8744 -0.0753 -0.1156
 1980TIP3    H227500   4.177   2.881   0.296 -1.1006 -0.8528  0.6421
 1981TIP3   OH227501   6.486   1.067   2.746 -0.2503  0.0615  0.4027
 1981TIP3    H127502   6.433   1.058   2.667 -0.0749 -1.6429  0.4302
 1981TIP3    H227503   6.548   0.994   2.741  2.8757  2.5422 -0.1773
 1982TIP3   OH227504   5.845   0.205   1.317  0.1882  0.4403 -0.5500
 1982TIP3    H127505   5.784   0.132   1.306 -0.0465  0.3499  1.0583
 1982TIP3    H227506   5.791   0.277   1.350  0.8032  0.5881  0.1775
 1983TIP3   OH227507   0.617   4.763   1.081  0.2506  0.3259 -0.1767
 1983TIP3    H127508   0.613   4.739   0.988  0.2714  1.7442 -0.5712
 1983TIP3    H227509   0.708   4.748   1.105  0.4987  0.9525 -0.6872
 1984TIP3   OH227510   4.060   4.695   0.670  0.6366  1.0891 -0.0612
 1984TIP3    H127511   4.012   4.704   0.753  1.3587 -0.0304  0.5046
 1984TIP3    H227512   4.099   4.782   0.656  0.1564  1.4146  0.5461
 1985TIP3   OH227513   2.029   0.307   2.057 -1.2840  0.1503  0.0701
 1985TIP3    H127514   2.036   0.363   1.979 -0.0150 -0.9039 -0.6266
 1985TIP3    H227515   1.986   0.362   2.122 -1.2895  1.4806 -1.0010
 1986TIP3   OH227516   2.758   0.503   0.997 -0.7073 -0.2430  0.1775
 1986TIP3    H127517   2.700   0.567   1.039 -0.5315 -0.1639  0.2997
 1986TIP3    H227518   2.830   0.555   0.961 -2.1574  0.0400 -2.5787
 1987TIP3   OH227519   6.528   3.010   0.642  0.4869  0.4673 -0.1131
 1987TIP3    H127520   6.509   2.938   0.581 -1.4404  0.4633  0.4089
 1987TIP3    H227521   6.621   3.027   0.631  0.5557 -0.7059 -1.7792
 1988TIP3   OH227522   3.532   3.369   8.228 -0.4258  0.5213 -0.0520
 1988TIP3    H127523   3.495   3.435   8.287 -0.9039  1.5500 -1.4504
 1988TIP3    H227524   3.488   3.385   8.145  0.7239 -0.4595 -0.8681
 1989TIP3   OH227525   1.387   6.532   0.611  0.5934 -0.2946 -0.4742
 1989TIP3    H127526   1.415   6.571   0.693  0.5435 -0.8758 -0.1810
 1989TIP3    H227527   1.463   6.485   0.579  0.3245 -0.8642 -0.2833
 1990TIP3   OH227528   1.289   1.914   8.054  0.6723  0.3321 -0.2412
 1990TIP3    H127529   1.287   1.839   8.114  1.9640  0.8135  0.4481
 1990TIP3    H227530   1.313   1.988   8.110 -1.0360  1.3672 -0.8279
 1991TIP3   OH227531   1.267   6.097   6.997  0.0676  0.2250 -0.0683
 1991TIP3    H127532   1.190   6.093   6.941 -0.9838  1.6806  1.2051
 1991TIP3    H227533   1.293   6.189   6.996  1.4014 -0.1288  0.0541
 1992TIP3   OH227534   5.432   6.756   1.036  0.2631  0.0772  0.1262
 1992TIP3    H127535   5.479   6.715   0.963 -1.6087  0.4426 -1.3646
 1992TIP3    H227536   5.355   6.796   0.995 -0.2537  1.2886  2.1667
 1993TIP3   OH227537   3.000   6.064   8.065 -0.1495 -0.1527 -0.4755
 1993TIP3    H127538   2.916   6.042   8.106  0.2806 -0.8947  0.0300
 1993TIP3    H227539   3.001   6.159   8.064 -1.2323 -0.1265 -0.9792
 1994TIP3   OH227540   4.398   0.565   8.114 -0.0044  0.7084 -0.4420
 1994TIP3    H127541   4.399   0.630   8.184 -1.9495 -0.2863  0.5797
 1994TIP3    H227542   4.490   0.539   8.105  0.2264  0.1528  2.4531
 1995TIP3   OH227543   4.615   3.615   0.234 -0.6656 -0.1461 -0.1018
 1995TIP3    H127544   4.631   3.700   0.276 -0.5262  0.1400 -0.7267
 1995TIP3    H227545   4.611   3.553   0.307 -0.0757  0.2908  0.3170
 1996TIP3   OH227546   6.659   1.295   1.209 -0.1760  0.2744  0.1804
 1996TIP3    H127547   6.716   1.243   1.153 -2.0015 -0.1367 -1.3920
 1996TIP3    H227548   6.711   1.372   1.231  1.8259 -1.1964  0.8530
 1997TIP3   OH227549   5.706   5.625   2.111 -0.1257 -0.2177 -0.1556
 1997TIP3    H127550   5.701   5.614   2.206  1.2883  0.7581  0.0683
 1997TIP3    H227551   5.757   5.549   2.081 -1.3301 -1.0098 -0.2817
 1998TIP3   OH227552   6.751   4.449   2.365 -0.0908  0.0484 -0.0016
 1998TIP3    H127553   6.781   4.367   2.403 -0.2961  0.8266  1.9575
 1998TIP3    H227554   6.658   4.454   2.388 -0.7661 -0.3229 -2.3248
 1999TIP3   OH227555   5.258   6.015   6.976 -0.3989 -0.2588  0.2788
 1999TIP3    H127556   5.282   5.922   6.977  1.1086  0.1126  0.0685
 1999TIP3    H227557   5.165   6.015   6.950 -0.4952 -1.7111  0.5320
 2000TIP3   OH227558   6.577   2.501   7.723  0.6712  0.6150  0.6476
 2000TIP3    H127559   6.665   2.477   7.752  0.2097 -0.2637  1.3728
 2000TIP3    H227560   6.519   2.461   7.788 -0.3694 -0.5903 -0.9511
 2001TIP3   OH227561   6.174   0.076   7.700 -0.2983 -0.1054  0.3679
 2001TIP3    H127562   6.193   0.039   7.614 -0.3651  0.5404  0.0694
 2001TIP3    H227563   6.188   0.170   7.690 -2.4083  0.2686  0.4437
 2002TIP3   OH227564   0.630   2.674   1.455 -0.0046  0.1017 -0.1717
 2002TIP3    H127565   0.539   2.698   1.468 -0.3572 -0.2455 -1.8260
 2002TIP3    H227566   0.637   2.586   1.492 -0.3879  0.0511 -0.2138
 2003TIP3   OH227567   0.573   6.660   2.371 -0.1493  0.2161 -0.2174
 2003TIP3    H127568   0.661   6.653   2.334 -0.2212  1.2625 -0.6221
 2003TIP3    H227569   0.537   6.571   2.366  0.2564  0.1123 -1.6140
 2004TIP3   OH227570   4.957   5.511   0.886  0.4012  0.0681  0.6292
 2004TIP3    H127571   4.924   5.565   0.958  1.9165  0.2137  1.2450
 2004TIP3    H227572   4.919   5.550   0.807 -0.9725  0.1408  1.2897
 2005TIP3   OH227573   4.626   3.091   1.191 -0.1193  0.0697 -0.4352
 2005TIP3    H127574   4.651   2.999   1.188  2.2851  0.6593 -1.0682
 2005TIP3    H227575   4.643   3.118   1.281 -0.4616 -0.0187 -0.3445
 2006TIP3   OH227576   1.264   0.964   7.149  0.1105 -0.2803 -0.0218
 2006TIP3    H127577   1.322   0.888   7.138  2.3715  1.4614 -0.7564
 2006TIP3    H227578   1.237   0.986   7.060 -0.2616 -0.0073  0.1584
 2007TIP3   OH227579   4.076   3.930   1.941 -0.0177  0.3561 -0.1755
 2007TIP3    H127580   4.075   3.923   1.845  1.6346 -1.4253 -0.1304
 2007TIP3    H227581   4.110   4.017   1.958 -0.9576  0.9452 -1.2059
 2008TIP3   OH227582   4.453   2.490   1.587  0.2264  0.1000  0.0763
 2008TIP3    H127583   4.438   2.408   1.540 -0.6454  2.3412 -4.0852
 2008TIP3    H227584   4.365   2.522   1.607  0.0778  2.3624 -3.3162
 2009TIP3   OH227585   5.848   6.515   2.107  0.0173 -0.1016  0.2299
 2009TIP3    H127586   5.766   6.563   2.096 -1.2405 -1.2078  3.3065
 2009TIP3    H227587   5.914   6.582   2.121 -0.8179  0.8070 -0.0901
 2010TIP3   OH227588   4.524   3.398   8.404  0.7879 -0.0347  0.2573
 2010TIP3    H127589   4.533   3.394   8.309  0.5010 -0.0783  0.2294
 2010TIP3    H227590   4.526   3.306   8.432  0.8725 -0.0218  0.2933
 2011TIP3   OH227591   3.724   6.664   1.545  0.2996 -0.0054 -0.2081
 2011TIP3    H127592   3.769   6.729   1.600  2.3826 -1.4551 -0.1100
 2011TIP3    H227593   3.723   6.584   1.598  0.2244 -0.8056 -1.3812
 2012TIP3   OH227594   4.922   0.118   3.021 -0.2808  0.8873 -0.0530
 2012TIP3    H127595   4.882   0.054   2.963 -1.4213  2.2084 -0.7933
 2012TIP3    H227596   4.880   0.201   2.998  0.6831  1.8004  1.2990
 2013TIP3   OH227597   0.026   4.202   0.951 -0.7813  0.4212 -0.2327
 2013TIP3    H127598   0.063   4.183   1.038  0.4045 -1.0597 -1.0284
 2013TIP3    H227599   0.051   4.292   0.934 -0.0886  0.3795  0.5054
 2014TIP3   OH227600   4.276   4.107   0.490 -0.1910 -0.3977 -0.0871
 2014TIP3    H127601   4.341   4.152   0.437  0.5908 -0.8285  0.4865
 2014TIP3    H227602   4.301   4.128   0.580 -0.5327 -0.9949  0.1512
 2015TIP3   OH227603   1.057   3.615   7.007  0.0162  0.3733  0.4700
 2015TIP3    H127604   1.015   3.602   6.922  0.6890 -0.6672  0.2773
 2015TIP3    H227605   1.139   3.660   6.986  1.4973 -2.2446  0.1922
 2016TIP3   OH227606   0.627   6.205   2.887 -0.1173 -0.1806 -0.3391
 2016TIP3    H127607   0.658   6.186   2.799 -2.5503 -0.8087 -1.1575
 2016TIP3    H227608   0.650   6.127   2.938 -0.1446 -0.5373 -0.8637
 2017TIP3   OH227609   3.066   5.425   7.123  0.4713 -0.4155 -0.5292
 2017TIP3    H127610   3.107   5.453   7.205  0.9662 -1.2905 -0.4729
 2017TIP3    H227611   3.035   5.507   7.084 -0.6850 -0.0571  0.9987
 2018TIP3   OH227612   0.996   0.428   7.197 -0.2698  0.0951  0.2737
 2018TIP3    H127613   0.957   0.374   7.266  1.1886 -1.0697  0.2391
 2018TIP3    H227614   0.922   0.472   7.156 -1.4927 -1.6123  0.5571
 2019TIP3   OH227615   1.111   0.546   0.551  0.1702  0.4156  0.0849
 2019TIP3    H127616   1.110   0.632   0.508 -1.5336  1.3130  1.7922
 2019TIP3    H227617   1.086   0.564   0.641 -0.0228 -1.8771  0.5329
 2020TIP3   OH227618   5.895   3.530   2.179  0.5158 -0.0621  0.3317
 2020TIP3    H127619   5.806   3.508   2.150  1.3072 -2.4191 -0.5749
 2020TIP3    H227620   5.912   3.616   2.140 -0.8331 -0.2471 -0.7471
 2021TIP3   OH227621   6.676   6.793   0.350 -0.2895  0.2991 -0.1370
 2021TIP3    H127622   6.679   6.721   0.412  0.3346  0.2457 -0.2249
 2021TIP3    H227623   6.606   6.850   0.383  0.7360  0.8189  1.2229
 2022TIP3   OH227624   0.857   1.549   7.322  0.3519  0.1440  0.2112
 2022TIP3    H127625   0.917   1.490   7.368 -1.0863 -1.3715  0.2257
 2022TIP3    H227626   0.801   1.491   7.270 -0.9415  1.5158 -0.0047
 2023TIP3   OH227627   0.384   4.200   1.098 -0.6889  0.5684  0.0223
 2023TIP3    H127628   0.291   4.193   1.117 -1.1108  0.9289 -1.7571
 2023TIP3    H227629   0.427   4.151   1.169 -2.2046  0.4315  0.8831
 2024TIP3   OH227630   3.653   4.410   0.584  0.3936 -0.0463  0.0529
 2024TIP3    H127631   3.718   4.467   0.542  1.1670  0.7800  2.2496
 2024TIP3    H227632   3.593   4.471   0.627 -0.9065 -0.8539 -0.5513
 2025TIP3   OH227633   2.786   2.691   2.398 -0.3613 -0.0985 -0.0521
 2025TIP3    H127634   2.738   2.773   2.411  1.0033  1.0180 -1.5305
 2025TIP3    H227635   2.857   2.695   2.463 -0.2249 -0.0332 -0.2033
 2026TIP3   OH227636   5.025   0.579   0.550  0.3037 -0.6794 -0.6276
 2026TIP3    H127637   5.080   0.538   0.617  0.3035 -0.7515 -0.6718
 2026TIP3    H227638   4.938   0.543   0.564  0.4906 -1.3882 -1.2431
 2027TIP3   OH227639   1.731   2.992   8.332  0.2907  0.5191 -0.1888
 2027TIP3    H127640   1.802   3.024   8.388  2.1324  0.8491 -2.5732
 2027TIP3    H227641   1.773   2.927   8.275 -1.1985  1.0855 -2.0246
 2028TIP3   OH227642   2.765   0.399   8.158 -0.1888 -0.6286 -1.4866
 2028TIP3    H127643   2.795   0.311   8.180 -0.1889 -0.6172 -1.4398
 2028TIP3    H227644   2.731   0.433   8.241  1.4061  0.0694 -1.0728
 2029TIP3   OH227645   3.843   2.269   0.080  0.0437 -0.0300 -0.5238
 2029TIP3    H127646   3.930   2.293   0.112  0.1313  1.6499 -1.8729
 2029TIP3    H227647   3.836   2.313  -0.004 -2.1771  0.0150 -0.3619
 2030TIP3   OH227648   0.287   2.002   8.059 -0.2170  0.0533  0.4889
 2030TIP3    H127649   0.270   1.913   8.028  1.3664  0.4617 -1.7973
 2030TIP3    H227650   0.382   2.006   8.068 -0.2232  1.6522  0.0436
 2031TIP3   OH227651   6.398   0.528   0.228 -0.0431  0.1323  0.4467
 2031TIP3    H127652   6.444   0.468   0.169  0.7989 -1.2205  2.3778
 2031TIP3    H227653   6.467   0.569   0.280 -0.8187  0.5167  1.2020
 2032TIP3   OH227654   0.042   1.196   0.574  0.2586  0.0692  0.2176
 2032TIP3    H127655   0.000   1.256   0.511 -1.4636 -1.7165 -0.4475
 2032TIP3    H227656   0.040   1.111   0.530 -1.3381 -1.3398  2.7783
 2033TIP3   OH227657   5.301   5.934   7.770 -0.3572  0.1292  0.0754
 2033TIP3    H127658   5.238   5.894   7.711 -2.0768  2.1690  0.4112
 2033TIP3    H227659   5.313   5.869   7.840 -0.6330 -1.0375 -0.9286
 2034TIP3   OH227660   1.787   4.812   2.907 -0.2094  0.4664 -0.0780
 2034TIP3    H127661   1.776   4.770   2.992  0.1158  0.5566  0.0080
 2034TIP3    H227662   1.866   4.866   2.916  0.4940 -0.4210 -0.7918
 2035TIP3   OH227663   4.503   6.437   7.828  0.6721 -0.5511 -0.7032
 2035TIP3    H127664   4.565   6.398   7.889 -0.1477 -0.3101  0.3104
 2035TIP3    H227665   4.448   6.494   7.882  0.7700  0.7217 -1.8838
 2036TIP3   OH227666   4.531   2.588   7.071 -0.1056  0.4181 -0.6417
 2036TIP3    H127667   4.605   2.646   7.050 -0.3969 -0.1604 -3.7474
 2036TIP3    H227668   4.540   2.515   7.009 -2.2611 -0.5915  0.1571
 2037TIP3   OH227669   0.498   4.232   7.894  0.0297 -0.0932 -0.3146
 2037TIP3    H127670   0.530   4.315   7.928 -0.4438  0.5414 -1.3750
 2037TIP3    H227671   0.439   4.256   7.823  0.6503 -1.3629 -1.3001
 2038TIP3   OH227672   5.746   1.641   6.640 -0.0922 -0.1523  0.4638
 2038TIP3    H127673   5.743   1.733   6.617 -0.5931 -0.1573  0.5035
 2038TIP3    H227674   5.660   1.622   6.677  0.9903  0.1510  3.4715
 2039TIP3   OH227675   2.648   3.723   1.590  0.3877 -0.1530  0.3522
 2039TIP3    H127676   2.724   3.674   1.557  0.2804 -1.2138  1.5578
 2039TIP3    H227677   2.572   3.674   1.559  0.1725  0.8860 -0.8206
 2040TIP3   OH227678   0.478   0.998   0.071  0.2006  0.0013  0.8162
 2040TIP3    H127679   0.403   0.939   0.070  0.5014 -0.4033  1.6495
 2040TIP3    H227680   0.528   0.975  -0.008 -0.1636 -0.2245  0.6503
 2041TIP3   OH227681   0.062   2.516   2.005 -0.0951 -0.0925  0.1399
 2041TIP3    H127682  -0.006   2.477   2.060 -1.1363  1.6057  0.1139
 2041TIP3    H227683   0.084   2.446   1.942 -2.1303 -0.5602 -0.1268
 2042TIP3   OH227684   6.419   4.301   1.372  0.1837  0.3748  0.0239
 2042TIP3    H127685   6.412   4.324   1.465 -2.2888  0.2844 -0.0908
 2042TIP3    H227686   6.501   4.251   1.366 -0.5852 -1.3446  2.5261
 2043TIP3   OH227687   6.006   6.190   0.598 -0.6745 -0.0914  0.5035
 2043TIP3    H127688   6.030   6.251   0.668 -0.6235 -0.0106  0.4152
 2043TIP3    H227689   5.911   6.196   0.592 -0.5494  1.1855 -0.6059
 2044TIP3   OH227690   2.104   0.762   0.229 -0.2445  0.3250  0.0146
 2044TIP3    H127691   2.125   0.701   0.299  1.8218  0.9924  0.0397
 2044TIP3    H227692   2.059   0.709   0.163 -0.6333 -0.6755  1.0608
 2045TIP3   OH227693   1.836   3.068   1.555  0.4087  0.3022 -0.4817
 2045TIP3    H127694   1.745   3.036   1.552  0.3439  0.4875 -0.5079
 2045TIP3    H227695   1.871   3.047   1.469  0.3103  0.4619 -0.5624
 2046TIP3   OH227696   6.736   6.421   7.361 -0.8107  0.5433  0.2649
 2046TIP3    H127697   6.659   6.477   7.373 -1.0585  0.5209 -1.0204
 2046TIP3    H227698   6.703   6.343   7.317  0.0001  0.7675 -0.8035
 2047TIP3   OH227699   4.935   5.130   1.887 -0.6685  0.0036 -0.6622
 2047TIP3    H127700   4.935   5.060   1.821  0.8405 -1.6603  0.9698
 2047TIP3    H227701   4.878   5.096   1.956  0.4328  0.1575  0.3425
 2048TIP3   OH227702   6.555   3.350   8.037  0.5495  0.0428  0.3465
 2048TIP3    H127703   6.464   3.325   8.024  0.6600 -0.8203  1.0721
 2048TIP3    H227704   6.551   3.434   8.082 -0.0090 -1.3487  3.1582
 2049TIP3   OH227705   0.861   0.979   3.163  0.8789 -0.0831 -0.2969
 2049TIP3    H127706   0.824   1.036   3.094  1.0372 -0.8026 -0.9957
 2049TIP3    H227707   0.786   0.928   3.194  0.7833  0.3343  0.1546
 2050TIP3   OH227708   3.248   5.036   7.035 -0.2810 -0.0488 -0.2020
 2050TIP3    H127709   3.323   5.094   7.046  0.4263 -1.1308  1.1634
 2050TIP3    H227710   3.173   5.094   7.028  0.2952  1.0729  1.9647
 2051TIP3   OH227711   4.047   2.301   0.437 -0.1572 -0.4477 -0.4878
 2051TIP3    H127712   4.020   2.388   0.406 -1.4537 -0.5837  0.1912
 2051TIP3    H227713   4.106   2.269   0.368 -2.4443 -0.4912 -2.5974
 2052TIP3   OH227714   4.697   2.872   1.416  0.1382 -0.0543 -0.0227
 2052TIP3    H127715   4.662   2.829   1.338  0.3096 -1.8861  0.8527
 2052TIP3    H227716   4.656   2.826   1.489  1.8640 -0.0875  0.9909
 2053TIP3   OH227717   0.929   6.457   8.108 -0.6267 -0.4950 -0.2471
 2053TIP3    H127718   0.887   6.430   8.190  0.9583 -2.5117 -0.0155
 2053TIP3    H227719   0.877   6.532   8.078 -3.3413 -1.8101  0.8198
 2054TIP3   OH227720   0.145   5.250   6.913  0.1593  0.1632 -0.2074
 2054TIP3    H127721   0.115   5.197   6.839  2.0670 -0.9011 -0.2763
 2054TIP3    H227722   0.124   5.198   6.990  0.6101  0.0399 -0.1700
 2055TIP3   OH227723   2.278   0.687   8.157  0.2527  0.1431  0.8974
 2055TIP3    H127724   2.337   0.649   8.222 -0.6062 -0.3621  1.3945
 2055TIP3    H227725   2.226   0.613   8.125 -1.2349  0.8194  1.6569
 2056TIP3   OH227726   1.218   1.887   1.866  0.2797  0.2801  0.0194
 2056TIP3    H127727   1.260   1.868   1.950 -0.8635 -0.2578  0.4873
 2056TIP3    H227728   1.236   1.980   1.851  0.3508  0.4257  0.9447
 2057TIP3   OH227729   5.117   3.373   8.302  0.1913  0.3982  0.3169
 2057TIP3    H127730   5.104   3.462   8.337 -1.5689  0.2967  0.0006
 2057TIP3    H227731   5.202   3.377   8.259  0.5141  1.7062  1.0099
 2058TIP3   OH227732   2.117   4.830   0.512 -0.2786  0.4398 -0.1070
 2058TIP3    H127733   2.174   4.753   0.503  0.0667  0.6432  0.3373
 2058TIP3    H227734   2.065   4.830   0.431 -0.4775 -0.4151  0.0112
 2059TIP3   OH227735   0.542   4.349   7.535 -0.4204 -0.4915  0.7636
 2059TIP3    H127736   0.466   4.346   7.593  0.5286 -0.4344  2.0504
 2059TIP3    H227737   0.544   4.440   7.504 -1.1832 -0.6305  0.2683
 2060TIP3   OH227738   5.946   6.601   0.456  0.6508  0.0173 -0.1169
 2060TIP3    H127739   5.941   6.687   0.414 -2.1726  0.0359  0.0404
 2060TIP3    H227740   5.951   6.621   0.550 -0.0241  0.0289 -0.0792
 2061TIP3   OH227741   0.710   5.468   1.259 -0.0493 -0.3755  0.0087
 2061TIP3    H127742   0.664   5.385   1.268  1.9977 -1.5278  0.3116
 2061TIP3    H227743   0.646   5.526   1.215 -1.4233 -2.1477 -0.4450
 2062TIP3   OH227744   1.756   4.507   1.341 -0.1008  0.0085  0.1174
 2062TIP3    H127745   1.662   4.523   1.332  0.0745  1.7270  0.8259
 2062TIP3    H227746   1.796   4.592   1.324  1.2998 -0.5862  0.2879
 2063TIP3   OH227747   5.082   6.040   0.473  0.5513  0.0094  0.4724
 2063TIP3    H127748   5.084   6.136   0.464 -1.7905 -0.0383 -1.3227
 2063TIP3    H227749   5.162   6.010   0.430  0.6491  1.1032 -0.1478
 2064TIP3   OH227750   3.432   2.735   7.924  0.0289 -0.2123 -0.0776
 2064TIP3    H127751   3.377   2.811   7.945 -0.1865 -1.0257  2.6446
 2064TIP3    H227752   3.369   2.665   7.906  0.0933 -0.9666  2.3654
 2065TIP3   OH227753   5.740   0.246   1.691  0.3280  0.0132 -0.2054
 2065TIP3    H127754   5.665   0.280   1.642 -1.2179 -1.7264  0.7753
 2065TIP3    H227755   5.734   0.288   1.777  1.3583  0.9466 -0.5756
 2066TIP3   OH227756   3.932   5.893   7.909 -0.1131 -0.5022  0.0713
 2066TIP3    H127757   3.887   5.976   7.896 -1.7673 -0.8023  2.9328
 2066TIP3    H227758   4.023   5.916   7.924 -0.3839  0.6966 -0.0253
 2067TIP3   OH227759   2.958   0.184   8.430  0.0081 -0.0429  0.2516
 2067TIP3    H127760   3.021   0.192   8.359  0.2062  0.6411  0.4921
 2067TIP3    H227761   2.874   0.171   8.387 -0.4175  3.4505 -0.3052
 2068TIP3   OH227762   3.345   1.093   8.230  0.1539  0.0970  0.2460
 2068TIP3    H127763   3.421   1.112   8.285 -0.0352 -0.6185  0.7696
 2068TIP3    H227764   3.381   1.087   8.142  0.8243 -0.7994  0.5550
 2069TIP3   OH227765   3.549   5.410   0.820  0.2338 -0.3207  0.3073
 2069TIP3    H127766   3.473   5.352   0.831 -0.4918  0.1255 -1.8928
 2069TIP3    H227767   3.551   5.461   0.900 -1.1723 -1.0574  0.8630
 2070TIP3   OH227768   3.673   6.037   7.976  0.8341 -0.4938  0.9620
 2070TIP3    H127769   3.610   5.983   8.023 -1.8895  1.3063 -0.3656
 2070TIP3    H227770   3.650   6.026   7.884 -0.1811  3.1600  0.6382
 2071TIP3   OH227771   0.625   5.266   2.744 -0.0891  0.3186 -0.2034
 2071TIP3    H127772   0.557   5.332   2.729 -1.2841 -0.6450  0.7683
 2071TIP3    H227773   0.677   5.302   2.816 -1.9466 -0.6088  1.7060
 2072TIP3   OH227774   6.782   3.168   0.902  0.1909  0.8558  0.0090
 2072TIP3    H127775   6.758   3.206   0.986 -0.4559  0.3343  0.0631
 2072TIP3    H227776   6.828   3.087   0.923 -0.5667  0.3765 -0.1387
 2073TIP3   OH227777   5.528   4.327   2.358 -0.4085 -0.1978  0.6120
 2073TIP3    H127778   5.524   4.407   2.411  2.5360  1.0790 -0.8826
 2073TIP3    H227779   5.450   4.331   2.304  0.6448  2.9393 -0.9604
 2074TIP3   OH227780   6.204   0.347   0.573 -0.0506 -0.1458 -0.5221
 2074TIP3    H127781   6.162   0.432   0.566  1.4394  0.5621 -1.4365
 2074TIP3    H227782   6.280   0.363   0.630 -0.1814 -1.0402 -0.0774
 2075TIP3   OH227783   1.125   3.326   2.707 -0.0540  0.0578 -0.2565
 2075TIP3    H127784   1.135   3.257   2.772 -0.8568 -1.1681 -1.3815
 2075TIP3    H227785   1.041   3.307   2.664 -0.6541  2.1307 -0.1470
 2076TIP3   OH227786   6.383   0.273   2.137 -0.1830  0.1260  0.2916
 2076TIP3    H127787   6.437   0.275   2.058  0.3748 -1.0549  0.6307
 2076TIP3    H227788   6.423   0.207   2.192 -1.1059  0.2960  1.1937
 2077TIP3   OH227789   6.770   4.644   0.989  0.6142  0.6172  0.0967
 2077TIP3    H127790   6.723   4.698   1.052 -0.0431  2.1878 -1.6490
 2077TIP3    H227791   6.788   4.562   1.036 -2.8088  0.3888  1.2373
 2078TIP3   OH227792   5.958   0.231   0.868 -0.2003  0.2806  0.6135
 2078TIP3    H127793   5.942   0.316   0.908  0.4469  0.7243 -0.0344
 2078TIP3    H227794   6.051   0.215   0.885 -0.3978 -0.4717  1.0382
 2079TIP3   OH227795   1.185   3.445   2.468  0.1780  0.4342 -0.1847
 2079TIP3    H127796   1.236   3.525   2.461 -1.2527  1.4498  0.4031
 2079TIP3    H227797   1.175   3.430   2.562  0.9891 -0.8263 -0.2827
 2080TIP3   OH227798   2.460   0.009   6.969  0.0665 -0.0484 -0.0618
 2080TIP3    H127799   2.407  -0.018   6.894 -1.1938  1.5874  0.1807
 2080TIP3    H227800   2.442  -0.056   7.037  2.6028 -2.6369 -1.6083
 2081TIP3   OH227801   3.813   1.770   2.155  0.4688 -1.0263 -0.2272
 2081TIP3    H127802   3.897   1.727   2.137  0.0841 -2.1649  0.5575
 2081TIP3    H227803   3.836   1.844   2.211  1.2721  0.5241 -2.4622
 2082TIP3   OH227804   0.514   6.585   7.127  0.2489  0.1661  0.1788
 2082TIP3    H127805   0.604   6.586   7.095  0.6257  1.5535  1.1868
 2082TIP3    H227806   0.522   6.598   7.222 -0.9291 -1.7966  0.5862
 2083TIP3   OH227807   6.842   5.456   0.413  0.9760 -0.3954 -0.0573
 2083TIP3    H127808   6.824   5.364   0.397  1.5632 -0.5766  0.3190
 2083TIP3    H227809   6.925   5.473   0.368  0.2602  0.2639 -1.1836
 2084TIP3   OH227810   5.579   5.204   0.210 -0.3924  0.3336 -0.1360
 2084TIP3    H127811   5.593   5.196   0.305 -0.7249  0.3643 -0.0819
 2084TIP3    H227812   5.666   5.215   0.174 -0.3290  1.2675  0.2646
 2085TIP3   OH227813   1.938   4.916   1.063  0.0779  0.5024 -0.3866
 2085TIP3    H127814   2.015   4.875   1.024 -0.3607 -0.3503 -0.3866
 2085TIP3    H227815   1.910   4.980   0.998  1.9144  2.2553  0.4530
 2086TIP3   OH227816   1.694   5.446   1.776  0.9954  0.7644  0.5735
 2086TIP3    H127817   1.726   5.499   1.849  1.4955 -0.2504  1.0961
 2086TIP3    H227818   1.761   5.458   1.708  3.0570 -1.9948  1.9400
 2087TIP3   OH227819   5.357   3.510   8.181 -0.8046  0.4374  0.8210
 2087TIP3    H127820   5.383   3.549   8.264  0.4432  1.6644 -0.1002
 2087TIP3    H227821   5.422   3.443   8.164 -0.4230  0.9167  0.3420
 2088TIP3   OH227822   0.278   6.768   2.968 -0.0930  0.4134  0.1578
 2088TIP3    H127823   0.196   6.778   3.016  0.1415  1.5108  0.3513
 2088TIP3    H227824   0.284   6.846   2.914  0.4268 -0.0541 -0.4868
 2089TIP3   OH227825   1.767   2.416   1.592  0.0458  0.1158 -0.4122
 2089TIP3    H127826   1.822   2.406   1.514 -0.3892 -0.4038 -0.6624
 2089TIP3    H227827   1.798   2.349   1.652  0.0839  0.2246 -0.3088
 2090TIP3   OH227828   3.724   5.396   8.436  0.0750  0.4769 -0.2133
 2090TIP3    H127829   3.736   5.303   8.416 -0.3812  0.4776 -0.5056
 2090TIP3    H227830   3.635   5.402   8.470  1.2649  0.2345  3.3237
 2091TIP3   OH227831   6.548   0.316   8.388  0.1149 -0.4284 -0.3610
 2091TIP3    H127832   6.599   0.394   8.407 -0.5036 -0.5333  2.0691
 2091TIP3    H227833   6.470   0.349   8.342  0.3491  0.2436 -0.2880
 2092TIP3   OH227834   1.723   2.077   1.986 -0.2688 -0.4779  0.1869
 2092TIP3    H127835   1.656   2.048   1.924  1.1762  0.0424 -1.7078
 2092TIP3    H227836   1.763   1.996   2.018 -0.6661 -0.7449  0.0078
 2093TIP3   OH227837   5.431   6.758   8.396 -0.5149 -0.2993 -0.6198
 2093TIP3    H127838   5.508   6.811   8.374  0.8440 -1.2998  1.4094
 2093TIP3    H227839   5.408   6.714   8.314  1.6664 -0.6843 -1.0851
 2094TIP3   OH227840   4.268   5.896   0.279 -0.5353 -0.0661 -0.1204
 2094TIP3    H127841   4.311   5.980   0.292  0.8922 -0.7187 -0.3644
 2094TIP3    H227842   4.281   5.849   0.361 -0.3257 -0.4631 -0.3769
 2095TIP3   OH227843   0.513   0.450   0.146 -0.1458 -0.5186 -0.5674
 2095TIP3    H127844   0.519   0.545   0.146  0.3596 -0.5473 -0.7876
 2095TIP3    H227845   0.596   0.421   0.184 -0.4371 -0.8652 -0.1874
 2096TIP3   OH227846   6.835   2.591   6.611 -0.3934 -0.0893  0.4108
 2096TIP3    H127847   6.805   2.678   6.638  0.9156  0.2969  0.6662
 2096TIP3    H227848   6.889   2.608   6.534 -0.9007 -0.7919 -0.1112
 2097TIP3   OH227849   6.135   6.120   8.160  0.3834  0.1539  0.0655
 2097TIP3    H127850   6.220   6.090   8.128  0.3989  0.6947 -0.4174
 2097TIP3    H227851   6.091   6.040   8.190  1.1381 -0.1047  0.5270
 2098TIP3   OH227852   5.730   0.487   0.683 -0.3361  0.4286 -0.9212
 2098TIP3    H127853   5.708   0.495   0.776  0.3540 -0.9080 -0.6286
 2098TIP3    H227854   5.650   0.514   0.638 -0.4485  1.8112  0.0231
 2099TIP3   OH227855   6.132   3.337   0.264  0.2704  0.2043 -0.3727
 2099TIP3    H127856   6.096   3.282   0.195 -0.6922  0.8424 -0.4112
 2099TIP3    H227857   6.136   3.425   0.225 -1.5502  0.8429  0.7485
 2100TIP3   OH227858   2.806   6.521   1.451 -0.1542  0.2653 -0.3284
 2100TIP3    H127859   2.781   6.593   1.393 -1.2472 -0.6055 -0.9810
 2100TIP3    H227860   2.726   6.503   1.501 -0.2520 -1.2208 -0.9756
 2101TIP3   OH227861   6.540   1.706   0.590  0.2982 -0.0006  0.2076
 2101TIP3    H127862   6.547   1.740   0.679  0.6013 -0.5063  0.3807
 2101TIP3    H227863   6.626   1.669   0.571  0.5491  1.0074 -0.6783
 2102TIP3   OH227864   6.289   6.471   8.495 -0.1584  0.3796 -0.3147
 2102TIP3    H127865   6.381   6.458   8.517 -0.2747 -0.1551 -0.1375
 2102TIP3    H227866   6.285   6.465   8.400  0.0453  0.7814 -0.3516
 2103TIP3   OH227867   6.072   2.071   7.383  0.1012  0.6927 -0.3384
 2103TIP3    H127868   6.079   2.040   7.473  0.6152 -0.0061 -0.6126
 2103TIP3    H227869   6.016   2.149   7.389 -0.0470  0.5291  0.5491
 2104TIP3   OH227870   3.869   2.762   6.893  0.4476  0.5311 -0.3202
 2104TIP3    H127871   3.932   2.697   6.863  1.7387  1.9441 -0.7676
 2104TIP3    H227872   3.882   2.766   6.988  1.7237  1.4489 -0.5005
 2105TIP3   OH227873   4.069   0.169   0.301 -0.3627 -0.0864 -0.0465
 2105TIP3    H127874   4.013   0.099   0.269  1.0132 -1.7359  1.0032
 2105TIP3    H227875   4.157   0.133   0.298  0.2512  1.1327  1.7526
 2106TIP3   OH227876   1.900   6.256   2.451 -0.2847 -0.0734 -0.0607
 2106TIP3    H127877   1.806   6.271   2.451 -0.2435  0.2859 -1.0427
 2106TIP3    H227878   1.932   6.305   2.375  0.9844  1.5270  1.4470
 2107TIP3   OH227879   6.524   3.305   7.293  0.3211  0.1153  0.1810
 2107TIP3    H127880   6.443   3.326   7.246 -0.6823 -1.0628  1.3015
 2107TIP3    H227881   6.579   3.261   7.227  0.1892  1.1701 -0.6630
 2108TIP3   OH227882   3.667   6.257   2.154 -0.4874 -0.3274  0.0355
 2108TIP3    H127883   3.734   6.307   2.200 -1.0955 -0.6987  1.3942
 2108TIP3    H227884   3.705   6.170   2.144 -0.9788 -0.7190  1.3831
 2109TIP3   OH227885   0.803   1.030   7.943  0.5045 -0.4357  0.3299
 2109TIP3    H127886   0.897   1.047   7.949  0.7515 -1.6151 -0.0138
 2109TIP3    H227887   0.794   0.969   7.870 -0.7464  1.1677 -0.9364
 2110TIP3   OH227888   5.863   1.668   1.831 -0.1905  0.0349  0.0683
 2110TIP3    H127889   5.788   1.724   1.851 -0.5178 -0.1181 -0.6879
 2110TIP3    H227890   5.838   1.581   1.863  0.6966  0.4700  2.1027
 2111TIP3   OH227891   3.839   2.639   7.799 -0.3760 -0.8919  0.2258
 2111TIP3    H127892   3.850   2.565   7.738  0.8546  1.2791 -2.3940
 2111TIP3    H227893   3.772   2.694   7.759  0.3305  0.5263  0.9159
 2112TIP3   OH227894   0.890   6.462   2.409 -0.9094  0.1781  0.3993
 2112TIP3    H127895   0.865   6.548   2.375 -0.8696  0.4790  1.1063
 2112TIP3    H227896   0.848   6.457   2.495  1.8532  0.9841  1.9233
 2113TIP3   OH227897   4.459   2.583   2.239 -0.0239  0.5543 -0.2278
 2113TIP3    H127898   4.522   2.597   2.309 -0.1565  1.1459 -0.2196
 2113TIP3    H227899   4.381   2.631   2.267 -0.2765  0.3114 -0.5063
 2114TIP3   OH227900   0.955   3.047   1.696  0.0806 -0.0322 -0.4197
 2114TIP3    H127901   0.986   2.959   1.675  1.5982  0.6103 -0.9973
 2114TIP3    H227902   0.993   3.102   1.628 -1.9034  0.9086 -0.8201
 2115TIP3   OH227903   4.715   0.677   0.481 -0.0661  0.4035 -0.3370
 2115TIP3    H127904   4.628   0.698   0.514  0.5727  1.7173  0.5816
 2115TIP3    H227905   4.700   0.609   0.415 -1.4907 -1.9808  2.2379
 2116TIP3   OH227906   0.887   5.029   8.567 -0.5617  0.0654 -0.3150
 2116TIP3    H127907   0.797   5.004   8.586  0.0180 -0.9114  1.3361
 2116TIP3    H227908   0.911   5.088   8.639  0.3651 -0.3305 -0.2845
 2117TIP3   OH227909   1.154   4.146   7.600  0.7778 -0.1426 -0.4581
 2117TIP3    H127910   1.147   4.104   7.514  1.0713 -1.1760  0.0143
 2117TIP3    H227911   1.074   4.119   7.646  1.4073 -0.9614  0.1769
 2118TIP3   OH227912   3.114   1.027   7.705 -0.6670  0.4126 -0.3849
 2118TIP3    H127913   3.146   1.075   7.628 -2.0702 -2.1493 -2.7586
 2118TIP3    H227914   3.019   1.041   7.704 -0.5686  1.5221  1.8238
 2119TIP3   OH227915   6.821   2.344   7.861  0.1109 -0.2944 -0.0661
 2119TIP3    H127916   6.902   2.312   7.901  0.8344  2.2291  0.6825
 2119TIP3    H227917   6.837   2.338   7.767  1.0533 -0.1377  0.0752
 2120TIP3   OH227918   0.667   0.871   1.991 -0.0631 -0.1464 -0.1227
 2120TIP3    H127919   0.589   0.848   2.041 -1.2570  1.4186 -1.1777
 2120TIP3    H227920   0.710   0.939   2.043 -0.0747 -0.1265 -0.1389
 2121TIP3   OH227921   5.676   4.571   7.709  0.2133  0.0514  0.2876
 2121TIP3    H127922   5.730   4.644   7.738  1.1788 -0.7323  0.5085
 2121TIP3    H227923   5.712   4.546   7.624 -1.3978  1.1075 -0.7615
 2122TIP3   OH227924   2.491   3.934   8.164 -0.0106  0.0060 -0.2290
 2122TIP3    H127925   2.450   4.020   8.156 -0.6403 -0.1765  0.8547
 2122TIP3    H227926   2.535   3.921   8.080  0.3417  1.5041 -0.3130
 2123TIP3   OH227927   6.571   3.641   1.112  0.6089 -0.1990  0.3479
 2123TIP3    H127928   6.532   3.620   1.196  1.1167 -1.3484  0.3236
 2123TIP3    H227929   6.666   3.641   1.129  0.6787  0.6417  0.0069
 2124TIP3   OH227930   1.561   4.475   1.923  0.1301  0.2276  0.4034
 2124TIP3    H127931   1.515   4.392   1.934  1.0448 -0.2041  1.0970
 2124TIP3    H227932   1.531   4.529   1.997  0.1942  0.2002  0.4496
 2125TIP3   OH227933   6.796   5.702   2.523 -0.0471  0.0602  0.4211
 2125TIP3    H127934   6.792   5.608   2.504 -0.4374  0.4457 -1.6294
 2125TIP3    H227935   6.881   5.714   2.567  0.6437 -1.0452 -0.5609
 2126TIP3   OH227936   2.115   4.299   1.552 -0.1271  0.3141  0.1953
 2126TIP3    H127937   2.125   4.209   1.521 -0.7740 -0.4559  2.1076
 2126TIP3    H227938   2.020   4.313   1.554 -0.0272  1.2725 -0.6154
 2127TIP3   OH227939   2.581   3.153   2.242 -0.1440 -0.2007  0.8384
 2127TIP3    H127940   2.541   3.211   2.177 -0.3284  0.7605  1.7864
 2127TIP3    H227941   2.667   3.192   2.258  0.2314 -0.9049  0.5720
 2128TIP3   OH227942   0.765   0.013   1.401  0.1180  0.0329  0.0362
 2128TIP3    H127943   0.694   0.021   1.464  0.9440 -0.9879  1.1371
 2128TIP3    H227944   0.810  -0.069   1.425  0.5101 -0.3412 -1.8184
 2129TIP3   OH227945   0.697   4.083   2.489 -0.1600  1.3247 -0.8354
 2129TIP3    H127946   0.762   4.146   2.457  1.5442  0.1957  0.2333
 2129TIP3    H227947   0.651   4.129   2.559  0.1539  1.8310 -0.9535
 2130TIP3   OH227948   2.260   5.629   2.046  0.4055  0.2717  0.1220
 2130TIP3    H127949   2.290   5.539   2.060  0.2168  0.1889 -0.0018
 2130TIP3    H227950   2.217   5.627   1.960  2.5398  1.0125 -1.0320
 2131TIP3   OH227951   3.456   3.829   2.873  0.6265 -0.7637 -0.4909
 2131TIP3    H127952   3.536   3.881   2.881  0.6239 -0.8325 -0.0193
 2131TIP3    H227953   3.404   3.876   2.808  0.3892  0.1225  0.3308
 2132TIP3   OH227954   2.967   5.129   1.202  0.5661 -0.0374  0.4560
 2132TIP3    H127955   3.015   5.074   1.264  0.3429 -2.8028 -1.6223
 2132TIP3    H227956   2.884   5.148   1.247  0.4389 -1.8976  1.1155
 2133TIP3   OH227957   2.801   3.591   8.454 -0.6991 -0.1265 -0.2076
 2133TIP3    H127958   2.745   3.666   8.476  0.1230  0.2204  0.7970
 2133TIP3    H227959   2.883   3.631   8.424 -0.1221 -0.6084  0.6924
 2134TIP3   OH227960   2.567   3.254   0.478  0.9923 -0.3951  0.2868
 2134TIP3    H127961   2.640   3.192   0.479 -0.0569 -1.7934 -2.1069
 2134TIP3    H227962   2.490   3.201   0.500  0.2581  0.3256 -0.4607
 2135TIP3   OH227963   2.362   1.829   3.024  0.5505  0.2919  0.0266
 2135TIP3    H127964   2.316   1.910   3.046 -0.6217 -0.8529  2.2070
 2135TIP3    H227965   2.346   1.816   2.931 -1.6589  1.1641  0.2124
 2136TIP3   OH227966   0.429   2.682   2.150  0.1778  0.4653  0.2154
 2136TIP3    H127967   0.405   2.623   2.079  0.8170  0.9618 -0.4403
 2136TIP3    H227968   0.395   2.641   2.229 -1.0899  0.2019 -0.4385
 2137TIP3   OH227969   1.191   0.928   8.375  0.1786 -0.4197 -0.0026
 2137TIP3    H127970   1.227   0.841   8.358  2.9685  0.4533  0.7858
 2137TIP3    H227971   1.123   0.940   8.309 -0.2631 -3.1421 -0.1322
 2138TIP3   OH227972   5.214   1.223   1.871  0.7856 -0.3987 -0.1132
 2138TIP3    H127973   5.180   1.134   1.863  0.4531 -0.3631  0.7763
 2138TIP3    H227974   5.198   1.247   1.962  0.0581  0.9049 -0.5630
 2139TIP3   OH227975   3.346   6.753   0.097 -0.3818  0.4809 -0.4565
 2139TIP3    H127976   3.338   6.823   0.032 -0.8747  0.4224 -0.4636
 2139TIP3    H227977   3.406   6.788   0.163 -1.8029  1.5363  0.3368
 2140TIP3   OH227978   3.301   3.268   7.916 -0.0607  0.0175 -0.2576
 2140TIP3    H127979   3.306   3.175   7.893 -0.2301 -0.6690  2.2813
 2140TIP3    H227980   3.235   3.273   7.985 -0.3416  2.1119 -0.5988
 2141TIP3   OH227981   4.054   6.054   0.422 -0.4614 -0.2065  0.4713
 2141TIP3    H127982   4.058   6.137   0.470 -0.1156  0.3200 -0.4495
 2141TIP3    H227983   4.044   5.987   0.491  1.0121  0.4278  1.3458
 2142TIP3   OH227984   6.738   1.289   7.691 -0.4302 -0.3352  0.0107
 2142TIP3    H127985   6.653   1.295   7.735  0.6859 -0.0581  2.2330
 2142TIP3    H227986   6.789   1.361   7.728  1.2675 -1.4212 -0.1467
 2143TIP3   OH227987   1.699   1.022   8.512  0.1794  0.7814 -0.5753
 2143TIP3    H127988   1.741   0.937   8.502 -0.2147  0.4480  0.4339
 2143TIP3    H227989   1.605   1.003   8.517  0.0969  1.2520 -0.1748
 2144TIP3   OH227990   0.053   1.958   2.852  0.3020  0.1585 -0.1162
 2144TIP3    H127991   0.027   2.050   2.860  0.5619  0.1214  1.3238
 2144TIP3    H227992  -0.005   1.912   2.912  1.7599 -0.3016  0.9626
 2145TIP3   OH227993   4.609   3.967   1.282  0.4021 -0.1649  0.6018
 2145TIP3    H127994   4.646   3.880   1.275  0.4173 -0.3521  2.4115
 2145TIP3    H227995   4.516   3.956   1.264  0.8032 -0.0747 -1.7452
 2146TIP3   OH227996   3.076   6.079   0.726  0.4315 -0.3427  0.3963
 2146TIP3    H127997   3.131   6.105   0.652  0.7103  1.8193  1.2768
 2146TIP3    H227998   3.131   6.095   0.803 -0.0715 -1.9348  1.1398
 2147TIP3   OH227999   5.335   3.769   1.715 -0.6330  0.1062 -0.0984
 2147TIP3    H128000   5.360   3.705   1.781 -0.3680 -0.1084 -0.4023
 2147TIP3    H228001   5.335   3.853   1.762 -3.2563 -0.3597  0.8775
 2148TIP3   OH228002   2.132   5.099   8.278 -0.2606  0.3303  0.0783
 2148TIP3    H128003   2.209   5.087   8.222  0.0212 -0.1859  0.5589
 2148TIP3    H228004   2.057   5.091   8.219  0.0495  2.4961 -0.7084
 2149TIP3   OH228005   3.579   3.104   8.061 -0.2890  0.4599  0.7877
 2149TIP3    H128006   3.525   3.078   8.135 -0.3188 -0.8472  0.3345
 2149TIP3    H228007   3.668   3.110   8.096 -0.6403  2.4698  1.4994
 2150TIP3   OH228008   2.359   2.490   1.101 -0.0170 -0.2284  0.0096
 2150TIP3    H128009   2.270   2.517   1.121  0.0078  0.5249 -0.8208
 2150TIP3    H228010   2.364   2.398   1.128 -0.5656  0.1631  1.5007
 2151TIP3   OH228011   0.886   0.076   2.088  0.5179  0.4006 -0.1659
 2151TIP3    H128012   0.910   0.085   2.180  0.0018  0.1113  0.0019
 2151TIP3    H228013   0.962   0.037   2.046  0.7457  0.5121  0.1452
 2152TIP3   OH228014   0.780   1.951   2.629 -0.2426 -0.1552 -0.4918
 2152TIP3    H128015   0.873   1.959   2.610  0.7020 -3.1860  2.0649
 2152TIP3    H228016   0.754   1.867   2.591 -1.1680 -0.6926  1.2144
 2153TIP3   OH228017   2.250   1.357   1.030 -0.0003  0.4995 -0.0496
 2153TIP3    H128018   2.250   1.273   0.984 -0.2964  1.1374 -1.2748
 2153TIP3    H228019   2.337   1.393   1.014 -0.9399  1.9449 -2.5566
 2154TIP3   OH228020   2.937   3.674   0.574  0.4057  0.0503 -0.1871
 2154TIP3    H128021   2.856   3.695   0.621  0.7616  0.1512  0.3840
 2154TIP3    H228022   2.908   3.621   0.500 -0.1693 -0.0377  0.0964
 2155TIP3   OH228023   0.337   3.316   1.203  0.3289 -0.0176 -0.4007
 2155TIP3    H128024   0.399   3.263   1.152  0.2389 -1.3566  0.8352
 2155TIP3    H228025   0.339   3.402   1.160  0.5337 -0.9766 -2.4317
 2156TIP3   OH228026   1.949   1.280   1.931  0.3513  0.5306 -0.1716
 2156TIP3    H128027   1.973   1.200   1.885 -0.4753  0.1648  0.0205
 2156TIP3    H228028   1.917   1.338   1.861 -1.2213 -0.1463 -0.0377
 2157TIP3   OH228029   1.970   4.034   1.344  0.3669 -0.6664  0.0248
 2157TIP3    H128030   1.899   4.026   1.408 -1.6364 -2.1361 -2.2247
 2157TIP3    H228031   1.951   4.115   1.297  0.8147 -0.5066  0.1146
 2158TIP3   OH228032   2.039   5.917   7.709  0.1130  0.6478 -0.5863
 2158TIP3    H128033   1.946   5.928   7.688  0.0731 -0.6648 -1.2231
 2158TIP3    H228034   2.040   5.899   7.803 -0.4389 -0.6838 -0.8084
 2159TIP3   OH228035   5.076   6.584   0.874 -0.1778 -0.2551  0.0758
 2159TIP3    H128036   5.133   6.658   0.855  0.5001 -1.1290 -1.5513
 2159TIP3    H228037   5.090   6.565   0.967  0.5667  0.8716  0.2083
 2160TIP3   OH228038   3.742   1.805   7.817 -0.4426 -0.2906  0.2880
 2160TIP3    H128039   3.743   1.715   7.850 -1.6610 -0.0878  0.9302
 2160TIP3    H228040   3.668   1.846   7.861 -1.0416  0.5045 -1.3807
 2161TIP3   OH228041   1.268   4.195   1.825  0.2889  0.2698  0.5254
 2161TIP3    H128042   1.177   4.212   1.846  0.0715 -0.1166 -0.0805
 2161TIP3    H228043   1.296   4.130   1.889  0.2051  0.5469  0.8471
 2162TIP3   OH228044   2.130   5.774   8.483  0.1321 -0.7630 -0.4994
 2162TIP3    H128045   2.163   5.737   8.402  0.5923 -0.3527 -0.5030
 2162TIP3    H228046   2.205   5.773   8.543 -0.3082 -1.4362  0.0507
 2163TIP3   OH228047   0.164   5.628   1.658  0.1468  0.3304 -0.0933
 2163TIP3    H128048   0.203   5.616   1.745 -0.1421 -1.7946 -0.2083
 2163TIP3    H228049   0.237   5.656   1.603  0.4816  1.0127  0.6649
 2164TIP3   OH228050   5.446   0.346   0.681  0.6622  0.2282  0.7838
 2164TIP3    H128051   5.421   0.399   0.605 -1.4470 -0.0570  1.1997
 2164TIP3    H228052   5.513   0.287   0.648  2.6145  2.6403  0.1352
 2165TIP3   OH228053   3.722   0.214   7.402  0.0569  0.1573 -0.4448
 2165TIP3    H128054   3.748   0.208   7.494  2.2865  1.7904 -0.9123
 2165TIP3    H228055   3.772   0.145   7.358  1.4626  1.4174 -0.8876
 2166TIP3   OH228056   3.058   5.731   8.280  0.5702 -0.1767  0.1172
 2166TIP3    H128057   3.051   5.758   8.188 -2.0464 -0.9381  0.0202
 2166TIP3    H228058   3.086   5.810   8.326  0.8848  0.4982 -1.1864
 2167TIP3   OH228059   2.915   3.454   1.224  0.0639  0.2362 -0.0278
 2167TIP3    H128060   2.844   3.475   1.164  0.3656  0.2451 -0.3834
 2167TIP3    H228061   2.979   3.406   1.171  2.3705  3.8616 -0.8651
 2168TIP3   OH228062   3.726   0.358   0.645  0.0286  0.6046 -0.1609
 2168TIP3    H128063   3.816   0.332   0.660 -0.4222 -0.7199  0.3723
 2168TIP3    H228064   3.732   0.442   0.598  1.5163  0.2859 -0.5690
 2169TIP3   OH228065   3.647   4.343   1.519 -0.2713  0.0690  0.0628
 2169TIP3    H128066   3.626   4.320   1.610  1.0694  1.2845  0.7178
 2169TIP3    H228067   3.566   4.382   1.486 -0.9611 -0.9103  0.5349
 2170TIP3   OH228068   5.295   1.207   7.478  0.4578  0.0505 -0.2060
 2170TIP3    H128069   5.231   1.180   7.545 -0.0005 -1.3814 -1.1762
 2170TIP3    H228070   5.375   1.223   7.528 -0.5491  1.6710  1.0147
 2171TIP3   OH228071   3.914   6.181   7.072  0.2874  0.4856  0.3084
 2171TIP3    H128072   3.844   6.125   7.108  0.4720  0.4506  0.6175
 2171TIP3    H228073   3.934   6.141   6.987  1.6452 -1.0003  1.2671
 2172TIP3   OH228074   5.147   2.753   2.446  0.1366  0.0624 -0.1077
 2172TIP3    H128075   5.161   2.831   2.499 -1.0319  0.5025 -0.4054
 2172TIP3    H228076   5.096   2.694   2.502  0.4101 -0.2035 -0.1329
 2173TIP3   OH228077   6.740   5.399   7.756  0.7697 -0.3624 -0.1822
 2173TIP3    H128078   6.780   5.341   7.691 -0.1173 -0.7093 -0.4325
 2173TIP3    H228079   6.806   5.466   7.772  2.5559 -2.3404  1.3837
 2174TIP3   OH228080   4.564   4.790   1.528  0.4543 -0.7047  0.0533
 2174TIP3    H128081   4.473   4.820   1.528  0.1067 -1.7188 -0.4722
 2174TIP3    H228082   4.569   4.727   1.599  0.9963  0.0191  0.6784
 2175TIP3   OH228083   3.197   1.652   1.490 -0.2693 -0.0967  0.1509
 2175TIP3    H128084   3.106   1.683   1.495 -0.0949  0.2499  1.4790
 2175TIP3    H228085   3.224   1.642   1.581  1.6112  1.5552 -0.1582
 2176TIP3   OH228086   1.534   5.511   7.481 -0.0890  0.6388 -0.1905
 2176TIP3    H128087   1.598   5.469   7.423  1.6571  2.1043  0.5565
 2176TIP3    H228088   1.493   5.438   7.528  2.9822 -0.3374  1.2366
 2177TIP3   OH228089   4.712   6.646   2.540 -0.1055  0.2501 -0.6501
 2177TIP3    H128090   4.771   6.720   2.529  0.3704  0.0926  0.6177
 2177TIP3    H228091   4.625   6.683   2.527  0.1944  0.7871 -1.1556
 2178TIP3   OH228092   0.044   5.816   1.900  0.1954  0.6314  1.1879
 2178TIP3    H128093  -0.035   5.764   1.888  0.3498  1.0648 -3.9027
 2178TIP3    H228094   0.113   5.752   1.918 -0.3489 -0.4967 -0.5235
 2179TIP3   OH228095   2.541   3.211   1.973 -0.0893  0.2282 -0.5739
 2179TIP3    H128096   2.515   3.126   1.937  1.1810 -0.0687 -0.8548
 2179TIP3    H228097   2.493   3.275   1.919 -0.1774 -0.2840 -1.1181
 2180TIP3   OH228098   6.388   3.969   1.860  0.3197  0.2960  0.2566
 2180TIP3    H128099   6.371   4.033   1.791 -0.0255 -0.4055 -0.3202
 2180TIP3    H228100   6.435   3.898   1.816 -2.7900 -1.7419 -0.0716
 2181TIP3   OH228101   5.251   4.453   8.469 -0.6422  0.0342 -0.1108
 2181TIP3    H128102   5.257   4.403   8.550  0.5626  0.1889 -0.0820
 2181TIP3    H228103   5.173   4.507   8.480  0.1849  0.9833  1.5070
 2182TIP3   OH228104   4.269   2.435   2.532  0.3642  0.0301 -0.1310
 2182TIP3    H128105   4.194   2.448   2.589  0.1996  0.7463 -0.5008
 2182TIP3    H228106   4.273   2.515   2.479  1.0515 -0.2386 -0.4944
 2183TIP3   OH228107   1.406   1.269   2.564  0.1281  0.5540 -0.1412
 2183TIP3    H128108   1.368   1.238   2.646 -0.5717  0.6065 -0.4350
 2183TIP3    H228109   1.463   1.198   2.535  0.6952  0.7041  0.5925
 2184TIP3   OH228110   5.948   5.064   1.488 -0.5523  0.0624  0.3776
 2184TIP3    H128111   5.905   5.008   1.423 -0.9738  0.0254  0.6860
 2184TIP3    H228112   5.929   5.153   1.460 -2.9185  0.1010  1.8174
 2185TIP3   OH228113   1.077   3.838   7.710 -0.1111  0.4165 -0.2614
 2185TIP3    H128114   1.121   3.753   7.718  1.0028  0.9859 -0.2213
 2185TIP3    H228115   1.123   3.895   7.771 -0.9642  1.0143 -0.1627
 2186TIP3   OH228116   5.223   1.258   2.141 -0.4281  0.2913  0.4283
 2186TIP3    H128117   5.280   1.196   2.187 -0.6506 -0.1938  0.0603
 2186TIP3    H228118   5.148   1.269   2.200 -0.5487 -0.0585  0.3456
 2187TIP3   OH228119   2.815   2.888   0.903  0.5229  0.6775  0.1711
 2187TIP3    H128120   2.801   2.801   0.941 -0.4055  0.6737 -0.1629
 2187TIP3    H228121   2.841   2.942   0.977  1.4597  0.0404  0.3251
 2188TIP3   OH228122   2.630   5.554   7.368  0.6481  0.3564 -0.4418
 2188TIP3    H128123   2.603   5.546   7.276  0.8605  0.7603 -0.5411
 2188TIP3    H228124   2.669   5.469   7.388 -0.6093 -0.2085 -0.3159
 2189TIP3   OH228125   2.060   4.544   1.794 -0.9400  0.2774  0.5409
 2189TIP3    H128126   2.029   4.496   1.717 -2.8797  1.2112  0.6798
 2189TIP3    H228127   2.099   4.477   1.850  0.4163 -0.4369 -1.1723
 2190TIP3   OH228128   5.439   1.366   1.106  0.3739  0.0890  0.3835
 2190TIP3    H128129   5.476   1.434   1.162 -0.4805  0.1977  0.8418
 2190TIP3    H228130   5.344   1.375   1.119  0.0428  1.0721 -2.1742
 2191TIP3   OH228131   5.723   6.883   1.948  0.0824  0.2943 -0.3174
 2191TIP3    H128132   5.644   6.927   1.917  0.0260  0.5242  0.1446
 2191TIP3    H228133   5.790   6.902   1.881 -0.4531 -0.5864 -1.1358
 2192TIP3   OH228134   5.912   5.256   1.249  0.1631  0.2162  0.1874
 2192TIP3    H128135   5.965   5.290   1.177  0.3926 -0.4037  0.0576
 2192TIP3    H228136   5.858   5.330   1.277 -1.1619  0.0254 -1.7232
 2193TIP3   OH228137   0.759   2.783   7.330 -0.4005  0.3390 -0.4307
 2193TIP3    H128138   0.687   2.820   7.280 -0.5439  1.4920  0.5820
 2193TIP3    H228139   0.779   2.849   7.396  2.1130  0.4007 -1.1668
 2194TIP3   OH228140   2.245   3.237   2.691  0.2479 -0.6169 -0.1795
 2194TIP3    H128141   2.276   3.326   2.673  0.3938 -0.5465  0.4126
 2194TIP3    H228142   2.203   3.209   2.609 -1.7898  0.8259  0.3000
 2195TIP3   OH228143   5.644   1.182   8.345 -0.0970  0.1147  0.1198
 2195TIP3    H128144   5.729   1.225   8.349 -0.5404  0.9936  0.3423
 2195TIP3    H228145   5.663   1.095   8.308  1.2311 -0.6312  2.3460
 2196TIP3   OH228146   0.278   6.316   2.235 -0.3399  0.3301 -0.1078
 2196TIP3    H128147   0.225   6.252   2.186  0.2023  0.4527 -0.8770
 2196TIP3    H228148   0.291   6.388   2.173  0.9555  0.1811 -0.0381
 2197TIP3   OH228149   1.128   5.740   7.824  0.3193 -0.1252 -0.1720
 2197TIP3    H128150   1.043   5.696   7.817  1.4282 -2.3398 -0.7384
 2197TIP3    H228151   1.138   5.785   7.740 -0.1782 -0.0844 -0.2130
 2198TIP3   OH228152   1.123   5.833   8.501  0.3573 -0.5589 -0.5996
 2198TIP3    H128153   1.098   5.880   8.581  0.1029  0.3540 -1.1950
 2198TIP3    H228154   1.145   5.745   8.530  0.4648 -0.1762  0.5017
 2199TIP3   OH228155   1.360   6.286   0.899  0.3807  0.4582 -0.1576
 2199TIP3    H128156   1.355   6.295   0.804 -0.0976  2.5981  0.0258
 2199TIP3    H228157   1.275   6.315   0.931  1.2733  1.9576  1.0082
 2200TIP3   OH228158   4.944   5.321   7.329 -0.7024 -0.2511 -0.4680
 2200TIP3    H128159   5.019   5.262   7.317  0.2195  0.8354 -0.2485
 2200TIP3    H228160   4.920   5.346   7.240 -1.2508 -1.1180 -0.5767
 2201TIP3   OH228161   4.773   3.257   2.327 -0.7763  0.1259 -0.1512
 2201TIP3    H128162   4.833   3.331   2.340 -1.1095  0.5168 -0.8065
 2201TIP3    H228163   4.724   3.251   2.409  0.9050 -0.9061  0.8459
 2202TIP3   OH228164   2.165   2.135   7.294  0.4314 -0.1482  0.0049
 2202TIP3    H128165   2.101   2.205   7.305  0.5625  0.0095 -0.2289
 2202TIP3    H228166   2.140   2.069   7.359  0.7121  0.4112  0.6998
 2203TIP3   OH228167   3.013   5.522   2.116  0.2753 -0.2332  0.2659
 2203TIP3    H128168   2.933   5.518   2.063  0.4642 -1.5484  0.0400
 2203TIP3    H228169   3.051   5.434   2.109  0.4799 -0.3581  2.3240
 2204TIP3   OH228170   1.902   3.623   0.767  0.1131 -0.2887  0.3709
 2204TIP3    H128171   1.872   3.706   0.805 -0.1997  0.0871 -0.6704
 2204TIP3    H228172   1.831   3.562   0.786 -0.7376  0.2679 -0.9037
 2205TIP3   OH228173   1.172   5.649   1.449  0.4405  0.2012 -0.0525
 2205TIP3    H128174   1.138   5.637   1.360  1.8058  0.9503 -0.7059
 2205TIP3    H228175   1.121   5.721   1.485 -0.0437 -0.0333 -0.2599
 2206TIP3   OH228176   3.943   1.829   2.564 -0.5976  0.1217 -0.5611
 2206TIP3    H128177   3.939   1.755   2.625  0.5495 -0.9579 -1.7182
 2206TIP3    H228178   3.853   1.859   2.556 -0.8410 -0.0032  1.2765
 2207TIP3   OH228179   4.139   1.286   2.653  0.7641 -0.0725  0.1460
 2207TIP3    H128180   4.136   1.337   2.734  0.1483 -1.3084  0.9379
 2207TIP3    H228181   4.232   1.272   2.637  0.8821 -0.1668  0.8718
 2208TIP3   OH228182   1.381   4.352   2.080  0.2173  0.7779  0.5869
 2208TIP3    H128183   1.316   4.412   2.114 -0.6670  1.3091 -1.8541
 2208TIP3    H228184   1.332   4.272   2.060  0.7582  0.3899  0.7749
 2209TIP3   OH228185   5.316   0.129   7.616  0.6496 -0.4854  0.5427
 2209TIP3    H128186   5.273   0.043   7.613 -0.3586  0.0349 -1.3393
 2209TIP3    H228187   5.245   0.191   7.605  1.4642  0.5870  1.1779
 2210TIP3   OH228188   6.726   4.720   1.778  0.1429  0.4241 -0.7931
 2210TIP3    H128189   6.701   4.662   1.850 -1.5265  2.6309  0.5437
 2210TIP3    H228190   6.809   4.760   1.807 -1.1214  2.2248  0.6240
 2211TIP3   OH228191   3.895   1.449   0.842 -0.2284 -0.2750 -0.2733
 2211TIP3    H128192   3.893   1.375   0.781 -0.2379 -2.6053  2.3738
 2211TIP3    H228193   3.964   1.427   0.905 -0.8540  1.5448  1.1415
 2212TIP3   OH228194   3.542   3.712   0.875  0.2949  0.1058  0.2389
 2212TIP3    H128195   3.526   3.773   0.803 -0.6276 -1.5981 -1.0761
 2212TIP3    H228196   3.477   3.736   0.942 -1.2411 -0.4726 -0.9808
 2213TIP3   OH228197   5.636   5.983   0.363  0.3014  0.6915 -0.3320
 2213TIP3    H128198   5.662   5.950   0.277  0.4622 -0.5001  0.1558
 2213TIP3    H228199   5.681   5.926   0.425 -1.6118  0.0755  0.5492
 2214TIP3   OH228200   4.366   1.680   2.075  0.1403 -0.3156 -0.5255
 2214TIP3    H128201   4.418   1.673   1.995 -0.5354  1.4602 -1.1682
 2214TIP3    H228202   4.431   1.695   2.144  0.7691 -2.3885 -0.6177
 2215TIP3   OH228203   0.040   6.740   7.556  0.0456 -0.7625 -0.3493
 2215TIP3    H128204  -0.020   6.759   7.628 -1.4931 -1.4778 -1.3998
 2215TIP3    H228205   0.051   6.823   7.511 -0.2987 -0.6663 -0.2557
 2216TIP3   OH228206   1.221   6.414   1.195  0.6810  0.2231 -0.4089
 2216TIP3    H128207   1.308   6.421   1.235  0.8146 -1.3607 -0.3446
 2216TIP3    H228208   1.232   6.452   1.108  1.6755 -0.7141 -0.7123
 2217TIP3   OH228209   0.732   0.349   0.483 -0.2068  0.4484  0.2164
 2217TIP3    H128210   0.744   0.382   0.394 -0.0516  1.1602  0.4919
 2217TIP3    H228211   0.746   0.426   0.539 -0.1616 -0.0196  0.8607
 2218TIP3   OH228212   4.019   1.968   1.931 -0.2084  0.9425  0.3121
 2218TIP3    H128213   3.986   1.978   2.021  0.3285 -1.1619  0.7987
 2218TIP3    H228214   4.019   1.874   1.916  3.4773  0.9457 -0.4459
 2219TIP3   OH228215   1.229   3.890   8.518 -0.7073 -0.1867 -0.4172
 2219TIP3    H128216   1.275   3.853   8.442 -1.5451 -0.4249 -0.8199
 2219TIP3    H228217   1.226   3.984   8.500  1.1845  0.0958  0.4767
 2220TIP3   OH228218   2.845   3.147   8.563 -0.1482  0.6115  0.2527
 2220TIP3    H128219   2.903   3.096   8.506 -0.3275 -0.4065  0.9379
 2220TIP3    H228220   2.890   3.148   8.647 -1.0318 -0.0550  0.7520
 2221TIP3   OH228221   2.452   4.579   8.272 -0.6868 -1.0918  0.0249
 2221TIP3    H128222   2.422   4.548   8.357  0.5342 -1.5876  0.3026
 2221TIP3    H228223   2.431   4.673   8.271 -2.4348 -1.4560  0.0739
 2222TIP3   OH228224   5.041   2.172   1.028 -0.4854  0.3098 -0.2598
 2222TIP3    H128225   5.014   2.182   1.119 -0.6040  0.6037 -0.3277
 2222TIP3    H228226   5.120   2.119   1.033  0.0291  1.0959  0.0799
 2223TIP3   OH228227   6.071   0.528   0.039 -0.3533 -0.5503 -0.0835
 2223TIP3    H128228   5.996   0.580   0.068 -0.3289 -0.8960  0.6184
 2223TIP3    H228229   6.094   0.474   0.115  0.1036 -1.0286 -0.5523
 2224TIP3   OH228230   4.723   4.953   0.997 -0.2550 -0.2618 -0.1095
 2224TIP3    H128231   4.815   4.946   0.969 -0.1720  1.0999 -0.2806
 2224TIP3    H228232   4.724   5.020   1.065 -1.2522  0.5669 -0.8689
 2225TIP3   OH228233   4.165   5.709   7.335 -0.6953  0.5927 -0.2071
 2225TIP3    H128234   4.190   5.617   7.331 -0.0092  0.7226  0.7957
 2225TIP3    H228235   4.168   5.738   7.244  0.9844  0.1028 -0.3404
 2226TIP3   OH228236   3.220   1.396   2.521 -0.0643  0.8519  0.3956
 2226TIP3    H128237   3.164   1.365   2.449 -2.1018 -2.2046  3.0361
 2226TIP3    H228238   3.191   1.486   2.536 -1.0794  0.8345 -1.1834
 2227TIP3   OH228239   2.487   0.971   0.089  0.3677 -0.3456  0.0571
 2227TIP3    H128240   2.417   1.026   0.054  1.3735  0.0855 -1.3720
 2227TIP3    H228241   2.462   0.882   0.066  1.0306 -0.0673 -1.9025
 2228TIP3   OH228242   5.618   4.382   6.872 -0.0942  0.3910 -0.0453
 2228TIP3    H128243   5.535   4.373   6.825  0.1680 -0.7188 -0.3104
 2228TIP3    H228244   5.640   4.475   6.863 -1.9297  0.9942  1.1260
 2229TIP3   OH228245   1.101   5.848   0.197  0.1746 -0.0002  0.6678
 2229TIP3    H128246   1.127   5.794   0.271 -0.2154 -1.8886 -0.5223
 2229TIP3    H228247   1.007   5.832   0.188  0.3170 -0.2295 -0.5556
 2230TIP3   OH228248   3.876   1.549   7.931 -0.7553  0.4866  0.1957
 2230TIP3    H128249   3.952   1.570   7.985 -0.3643  1.0038 -0.5419
 2230TIP3    H228250   3.871   1.453   7.935 -1.0765  0.5347  1.5887
 2231TIP3   OH228251   4.143   4.573   7.779 -0.1910 -0.0449  0.1228
 2231TIP3    H128252   4.100   4.489   7.794 -0.2101 -0.2268 -0.8354
 2231TIP3    H228253   4.143   4.583   7.683 -0.6884  1.3123  0.2362
 2232TIP3   OH228254   5.806   3.149   2.752  0.7500 -0.2929  1.2724
 2232TIP3    H128255   5.842   3.195   2.676  0.6993 -0.2582  1.2693
 2232TIP3    H228256   5.721   3.191   2.767 -0.8129 -2.5081 -0.7020
 2233TIP3   OH228257   6.845   1.768   1.168  0.0366  0.1191  0.1174
 2233TIP3    H128258   6.885   1.736   1.087  0.4739 -1.1141  0.7964
 2233TIP3    H228259   6.782   1.834   1.139 -1.2656 -1.6971 -1.4066
 2234TIP3   OH228260   2.580   6.903   7.777 -0.4840 -0.4966  0.1461
 2234TIP3    H128261   2.661   6.892   7.827 -0.6040 -0.3036  0.3853
 2234TIP3    H228262   2.608   6.917   7.687 -0.2170  0.5804  0.3856
 2235TIP3   OH228263   6.755   5.695   8.025 -0.8292 -0.0296 -0.8456
 2235TIP3    H128264   6.668   5.658   8.011 -0.0230 -1.8222 -1.3665
 2235TIP3    H228265   6.815   5.624   8.003  0.7719  1.0954 -0.2673
 2236TIP3   OH228266   5.804   6.529   2.508  0.0797  0.5678  0.1135
 2236TIP3    H128267   5.820   6.604   2.451 -0.5849  1.7573  1.4498
 2236TIP3    H228268   5.709   6.516   2.503  0.1939 -0.2527 -0.1593
 2237TIP3   OH228269   1.379   5.092   1.621 -0.1598 -0.3817  0.3005
 2237TIP3    H128270   1.432   5.141   1.684 -0.1463 -0.6692  0.5146
 2237TIP3    H228271   1.293   5.085   1.663 -0.6601  0.9129 -0.4576
 2238TIP3   OH228272   4.970   6.562   8.005 -0.5255  0.0031  0.0919
 2238TIP3    H128273   5.054   6.590   7.968  0.4812 -0.9936  1.4723
 2238TIP3    H228274   4.918   6.642   8.011  0.7334  0.8460  0.1765
 2239TIP3   OH228275   5.530   1.116   1.786  0.3169  0.2272 -0.0127
 2239TIP3    H128276   5.586   1.111   1.709 -1.2892  0.1233 -1.2335
 2239TIP3    H228277   5.531   1.209   1.811  0.4477  0.3516 -0.4785
 2240TIP3   OH228278   1.507   4.391   7.700  0.5468 -0.5564  0.0434
 2240TIP3    H128279   1.519   4.485   7.717  0.8568 -0.6708  0.4721
 2240TIP3    H228280   1.583   4.366   7.648  0.8062 -0.7073  0.4884
 2241TIP3   OH228281   5.499   3.986   1.820 -0.6314 -0.1298 -0.5018
 2241TIP3    H128282   5.507   4.075   1.785  0.3212 -0.5463 -1.4255
 2241TIP3    H228283   5.411   3.982   1.856 -0.7541  1.1318 -0.6007
 2242TIP3   OH228284   1.953   0.211   2.882  0.2900  0.0589 -0.1311
 2242TIP3    H128285   1.988   0.122   2.875 -0.8722 -0.4909  0.7303
 2242TIP3    H228286   1.925   0.233   2.793  1.2675 -0.1301 -0.4984
 2243TIP3   OH228287   4.509   1.406   2.882 -0.5722 -0.1589 -0.3253
 2243TIP3    H128288   4.472   1.439   2.964 -1.9426 -0.9543 -0.5805
 2243TIP3    H228289   4.603   1.420   2.890 -0.6739 -0.2686  1.4004
 2244TIP3   OH228290   0.831   6.040   7.749  0.3246 -0.9544  0.0220
 2244TIP3    H128291   0.918   6.057   7.713 -0.5638 -0.9571 -2.2248
 2244TIP3    H228292   0.840   6.064   7.842  2.6930 -0.9347 -0.1359
 2245TIP3   OH228293   3.558   1.216   2.676  0.0195 -0.3586 -0.0015
 2245TIP3    H128294   3.638   1.237   2.723  0.2506 -0.5790 -0.2942
 2245TIP3    H228295   3.493   1.201   2.744  0.1651  0.0658  0.2322
 2246TIP3   OH228296   2.217   4.821   1.090  0.0122 -0.0691 -0.1210
 2246TIP3    H128297   2.192   4.812   1.182 -1.2036 -0.1147 -0.4370
 2246TIP3    H228298   2.188   4.740   1.050 -0.4707  0.4033 -0.7507
 2247TIP3   OH228299   2.630   3.309   1.056 -0.4879  0.3225  0.5026
 2247TIP3    H128300   2.622   3.397   1.094 -0.5241  0.2158  0.7444
 2247TIP3    H228301   2.709   3.273   1.097  0.7161  1.0006 -1.1278
 2248TIP3   OH228302   5.121   4.661   7.180 -0.5692 -0.0731 -0.7782
 2248TIP3    H128303   5.141   4.571   7.206  1.1558  0.4480 -0.2304
 2248TIP3    H228304   5.060   4.650   7.106 -1.1507 -1.6529 -0.1237
 2249TIP3   OH228305   0.293   4.490   2.567 -0.1954 -0.2375  0.3418
 2249TIP3    H128306   0.283   4.517   2.658 -0.7727  1.0260 -0.0740
 2249TIP3    H228307   0.205   4.494   2.530 -0.0463 -1.1850 -0.1705
 2250TIP3   OH228308   2.558   4.566   1.146  0.0000  0.0144 -0.2582
 2250TIP3    H128309   2.523   4.556   1.234  0.4681 -0.3590 -0.1042
 2250TIP3    H228310   2.653   4.572   1.159  0.0745 -0.0880 -0.7344
 2251TIP3   OH228311   3.574   6.507   1.341  0.3354  0.0709  0.0110
 2251TIP3    H128312   3.577   6.590   1.294  0.3708 -0.0750 -0.2465
 2251TIP3    H228313   3.598   6.529   1.431 -1.5723  0.6581  0.4181
 2252TIP3   OH228314   1.367   3.603   0.386  0.5638 -0.0688  0.8817
 2252TIP3    H128315   1.357   3.683   0.437  0.6701  1.7977 -1.8443
 2252TIP3    H228316   1.461   3.585   0.387  0.9192  1.4689 -0.7129
 2253TIP3   OH228317   0.176   2.598   7.727 -0.0713  0.2389 -0.4350
 2253TIP3    H128318   0.227   2.564   7.800 -0.7402  1.5057  0.6867
 2253TIP3    H228319   0.189   2.693   7.731 -1.4537  0.4742 -0.9113
 2254TIP3   OH228320   6.683   4.573   1.524 -0.7030 -0.1032 -0.0508
 2254TIP3    H128321   6.689   4.620   1.607 -1.1995 -0.1558  0.0185
 2254TIP3    H228322   6.602   4.522   1.532 -0.7544 -0.1015 -0.5707
 2255TIP3   OH228323   3.897   0.766   8.343  1.4985 -0.0484 -0.5644
 2255TIP3    H128324   3.938   0.781   8.428  0.6058 -2.8582  0.4658
 2255TIP3    H228325   3.812   0.811   8.350  1.3860 -0.3460  0.0942
 2256TIP3   OH228326   2.016   5.224   2.491 -0.4799  0.4200 -0.4257
 2256TIP3    H128327   2.090   5.239   2.432 -0.3461  0.0263 -0.3608
 2256TIP3    H228328   2.011   5.304   2.544  0.6666 -0.0165  0.3952
 2257TIP3   OH228329   2.143   5.001   1.707  0.3532 -0.3278  0.0330
 2257TIP3    H128330   2.209   5.015   1.639  0.3011  0.5189  0.1464
 2257TIP3    H228331   2.157   4.911   1.736  0.2846 -0.7484 -1.1852
 2258TIP3   OH228332   3.821   1.031   0.284  0.2050 -0.0053 -0.4897
 2258TIP3    H128333   3.776   1.112   0.309  1.3370  0.7794 -0.9171
 2258TIP3    H228334   3.891   1.059   0.225  1.4258 -1.1428  0.3380
 2259TIP3   OH228335   2.734   4.883   1.398  0.2394 -0.1935  0.0668
 2259TIP3    H128336   2.693   4.836   1.325  0.5050  0.0718 -0.2543
 2259TIP3    H228337   2.795   4.943   1.356 -1.4080  1.7692  0.3457
 2260TIP3   OH228338   6.152   0.070   1.812 -0.2575 -0.5703 -0.3227
 2260TIP3    H128339   6.125   0.010   1.743 -0.3055 -1.0644  0.1171
 2260TIP3    H228340   6.172   0.013   1.887 -1.3304  0.0299  0.4468
 2261TIP3   OH228341   5.435   4.248   1.738  0.4311 -0.2224  0.0822
 2261TIP3    H128342   5.436   4.197   1.658  0.5432 -0.2826  0.1218
 2261TIP3    H228343   5.380   4.323   1.718 -0.8182 -1.0155  0.4253
 2262TIP3   OH228344   3.482   2.004   0.500 -0.4325 -1.0372 -0.0456
 2262TIP3    H128345   3.483   1.942   0.572  1.2327  0.0421  0.9188
 2262TIP3    H228346   3.462   1.951   0.423 -0.7267 -2.4681  0.9823
 2263TIP3   OH228347   1.646   3.709   8.115  0.2136 -0.5513 -0.1525
 2263TIP3    H128348   1.636   3.631   8.059  1.2708 -0.9490  0.1939
 2263TIP3    H228349   1.669   3.779   8.054  0.9549 -0.8951 -0.2785
 2264TIP3   OH228350   2.688   2.699   7.454 -0.3737 -0.4617  0.1367
 2264TIP3    H128351   2.755   2.696   7.386 -1.3819  0.4459 -0.9423
 2264TIP3    H228352   2.608   2.667   7.411 -1.1565  0.6511  0.6918
 2265TIP3   OH228353   1.566   6.389   0.469  0.3486  0.3764  1.2152
 2265TIP3    H128354   1.538   6.341   0.391 -0.9878  2.5020  0.2791
 2265TIP3    H228355   1.644   6.436   0.441  0.3043  0.5506  1.3829
 2266TIP3   OH228356   0.568   1.500   2.177  0.1303  0.3340  0.5539
 2266TIP3    H128357   0.662   1.515   2.174  0.6567 -2.4103  0.7212
 2266TIP3    H228358   0.549   1.485   2.269 -0.2984 -0.0778  0.4020
 2267TIP3   OH228359   0.037   2.270   0.579 -0.4219  0.2104  0.3409
 2267TIP3    H128360   0.026   2.280   0.484 -0.0606 -1.7167  0.0645
 2267TIP3    H228361   0.131   2.257   0.591 -0.5363 -0.1291  0.9018
 2268TIP3   OH228362   3.893   2.388   7.327 -0.4967  0.1896 -0.5324
 2268TIP3    H128363   3.861   2.406   7.238  0.0292 -1.7427 -1.1578
 2268TIP3    H228364   3.860   2.300   7.347  2.7891 -1.1914 -0.5145
 2269TIP3   OH228365   5.716   5.082   1.204  0.9153 -0.4017 -0.0638
 2269TIP3    H128366   5.779   5.154   1.199  0.1232  0.3769  0.7849
 2269TIP3    H228367   5.690   5.067   1.113  2.2957 -0.7316 -0.4291
 2270TIP3   OH228368   2.782   4.955   1.736  0.0376  0.0645  1.1527
 2270TIP3    H128369   2.694   4.949   1.696  0.6728 -0.0434 -0.3139
 2270TIP3    H228370   2.810   5.044   1.719  1.5159 -0.7772 -1.4311
 2271TIP3   OH228371   5.095   0.237   0.349 -0.5034  0.5549 -0.3274
 2271TIP3    H128372   5.023   0.274   0.400 -0.3287 -0.4638  0.7046
 2271TIP3    H228373   5.156   0.310   0.339 -1.0874  1.0902 -0.1009
 2272TIP3   OH228374   0.439   4.924   2.753 -0.3740  0.2355 -0.2964
 2272TIP3    H128375   0.451   4.979   2.675  1.6775 -0.9399 -0.8949
 2272TIP3    H228376   0.345   4.908   2.757 -0.6449  1.1442 -1.9517
 2273TIP3   OH228377   3.067   3.382   1.438  0.2234  0.7923 -0.1782
 2273TIP3    H128378   2.998   3.398   1.374 -1.8143 -0.0917  1.6740
 2273TIP3    H228379   3.087   3.289   1.429  0.0875  0.7160  0.2932
 2274TIP3   OH228380   3.103   0.253   6.669  0.2334  0.2389  0.3987
 2274TIP3    H128381   3.174   0.316   6.681  1.1670 -0.6312 -0.4104
 2274TIP3    H228382   3.109   0.228   6.577 -1.0904  0.0904  0.3405
 2275TIP3   OH228383   3.862   3.244   1.638  0.0044  0.0003 -0.6104
 2275TIP3    H128384   3.851   3.331   1.676  1.1170  0.1952 -0.7138
 2275TIP3    H228385   3.876   3.187   1.713  1.7881  0.3211 -0.6586
 2276TIP3   OH228386   3.723   4.228   0.812  0.3290  0.0586  0.0098
 2276TIP3    H128387   3.745   4.297   0.749 -1.1533  0.4899 -0.0714
 2276TIP3    H228388   3.643   4.259   0.855  0.6121 -0.8111  1.2236
 2277TIP3   OH228389   5.180   5.590   2.118 -0.0958 -0.0258  0.4398
 2277TIP3    H128390   5.120   5.663   2.103 -1.8283 -0.8148  2.8542
 2277TIP3    H228391   5.141   5.517   2.070  1.1677  0.3792 -1.2662
 2278TIP3   OH228392   3.624   1.634   8.111 -0.2540 -0.0480 -0.2571
 2278TIP3    H128393   3.593   1.715   8.152 -1.1048 -1.6139  2.5195
 2278TIP3    H228394   3.719   1.636   8.123 -0.2899  0.4711 -0.0354
 2279TIP3   OH228395   2.772   6.747   1.812  0.1045  0.1729 -0.3863
 2279TIP3    H128396   2.787   6.842   1.812  2.5235 -0.1487  0.5483
 2279TIP3    H228397   2.857   6.709   1.834 -1.1993 -2.1674  0.9789
 2280TIP3   OH228398   3.969   4.002   8.385 -0.0870 -0.4780  0.0276
 2280TIP3    H128399   4.011   3.933   8.334  1.2961 -2.1721  3.1573
 2280TIP3    H228400   3.924   3.955   8.456 -1.0042  1.7421  1.0029
 2281TIP3   OH228401   3.640   6.296   8.123 -0.1660  0.1787 -0.1367
 2281TIP3    H128402   3.551   6.332   8.114 -1.2528 -1.8837  1.6502
 2281TIP3    H228403   3.636   6.211   8.078  1.0222  0.1963 -0.3076
 2282TIP3   OH228404   6.009   6.218   0.992  0.0426 -0.0914 -0.5698
 2282TIP3    H128405   5.998   6.285   1.060 -1.2467  0.2268 -1.0682
 2282TIP3    H228406   6.096   6.235   0.955  0.9661 -0.5359  1.2580
 2283TIP3   OH228407   1.546   3.243   8.078  0.1506  0.0838  0.0200
 2283TIP3    H128408   1.492   3.221   8.154 -0.8470  0.1234 -0.6627
 2283TIP3    H228409   1.563   3.159   8.036  0.4554  0.0943  0.1193
 2284TIP3   OH228410   2.301   6.293   8.209  0.1709  0.4444  0.1660
 2284TIP3    H128411   2.261   6.349   8.142 -0.0752  0.0552 -0.0114
 2284TIP3    H228412   2.352   6.230   8.160 -2.9467 -2.2528  0.0614
 2285TIP3   OH228413   1.531   5.280   8.294 -0.3086 -0.1578  0.1985
 2285TIP3    H128414   1.440   5.269   8.268 -0.8301  0.1283  1.8325
 2285TIP3    H228415   1.542   5.375   8.305  0.4363 -0.1064 -0.7699
 2286TIP3   OH228416   6.484   0.707   1.495 -0.0298 -0.2212  0.1278
 2286TIP3    H128417   6.488   0.800   1.517  2.1606 -0.2389  0.0827
 2286TIP3    H228418   6.444   0.665   1.571  1.0772  0.5125  1.1347
 2287TIP3   OH228419   2.747   6.397   1.187 -0.4990 -0.3699 -0.4069
 2287TIP3    H128420   2.819   6.459   1.193 -1.8814  1.3303 -0.6725
 2287TIP3    H228421   2.755   6.343   1.266  0.8471 -0.0061 -0.2725
 2288TIP3   OH228422   2.931   0.665   7.227 -0.0054  0.1421  0.2201
 2288TIP3    H128423   2.860   0.603   7.210 -0.8496  1.2712 -0.4929
 2288TIP3    H228424   3.006   0.610   7.251 -1.3708 -1.0424  2.0306
 2289TIP3   OH228425   5.178   6.348   7.539  0.1348  0.1356  0.8092
 2289TIP3    H128426   5.142   6.424   7.585 -0.0447  1.2418 -1.0755
 2289TIP3    H228427   5.112   6.326   7.473  1.2400 -0.1464 -0.2325
 2290TIP3   OH228428   4.189   1.095   2.325  0.3264  0.2630 -0.1904
 2290TIP3    H128429   4.127   1.131   2.262 -1.2830 -1.8298  0.0744
 2290TIP3    H228430   4.220   1.013   2.285  0.8241 -0.0942  0.8744
 2291TIP3   OH228431   2.036   0.482   2.876 -0.0364 -0.2051 -0.2054
 2291TIP3    H128432   2.053   0.391   2.902 -1.0877 -0.1285  0.8056
 2291TIP3    H228433   1.941   0.486   2.863  0.0076  0.7445 -0.2973
 2292TIP3   OH228434   5.462   0.114   1.537  0.0052  0.8237 -0.4531
 2292TIP3    H128435   5.427   0.025   1.526  0.5956  0.3711  1.0966
 2292TIP3    H228436   5.526   0.122   1.466 -0.1438  0.0513 -0.6938
 2293TIP3   OH228437   3.291   4.353   0.568 -0.6301  0.6410  0.0455
 2293TIP3    H128438   3.326   4.423   0.512  0.4905  1.3845  1.5987
 2293TIP3    H228439   3.264   4.397   0.648  0.3086 -0.7167  1.1544
 2294TIP3   OH228440   5.697   6.190   0.530  0.3711 -0.3066  0.7080
 2294TIP3    H128441   5.658   6.136   0.461 -1.1595  1.4249  0.1424
 2294TIP3    H228442   5.697   6.133   0.607  0.5793 -1.7241 -0.2888
 2295TIP3   OH228443   5.180   0.002   8.093  0.2313 -0.8813 -0.4375
 2295TIP3    H128444   5.097  -0.019   8.049  0.2514  0.5760 -1.2111
 2295TIP3    H228445   5.236   0.038   8.024  0.8168 -0.0062  0.4718
 2296TIP3   OH228446   0.388   2.597   8.047  0.1769 -0.3948 -0.0407
 2296TIP3    H128447   0.412   2.567   8.135  0.9550  1.5383  0.4379
 2296TIP3    H228448   0.440   2.675   8.033 -0.9605  0.1124 -1.6922
 2297TIP3   OH228449   3.787   6.368   7.523 -0.2573 -0.1702 -0.2757
 2297TIP3    H128450   3.875   6.369   7.560 -0.3345 -1.8011  0.0372
 2297TIP3    H228451   3.730   6.349   7.598 -0.9705  1.4846 -0.3546
 2298TIP3   OH228452   1.919   5.690   1.361  0.0437 -0.1894  0.4877
 2298TIP3    H128453   1.874   5.706   1.444  1.5705 -0.7111  1.4529
 2298TIP3    H228454   2.012   5.699   1.381  0.4396  0.0643 -1.2675
 2299TIP3   OH228455   0.062   3.511   1.479  0.0745  0.2685 -0.0436
 2299TIP3    H128456   0.028   3.474   1.398 -0.5417  0.3398  0.1786
 2299TIP3    H228457   0.149   3.543   1.456  0.8792 -1.8555 -0.0873
 2300TIP3   OH228458   0.633   5.065   2.210  0.1340  0.3838 -0.8541
 2300TIP3    H128459   0.539   5.083   2.217 -0.1723 -1.6340  1.0343
 2300TIP3    H228460   0.640   5.007   2.134 -0.5935 -1.6837  0.5613
 2301TIP3   OH228461   4.456   3.385   7.000 -0.0559  0.2996  0.0757
 2301TIP3    H128462   4.377   3.436   6.983 -0.5191 -0.1655  0.8210
 2301TIP3    H228463   4.512   3.443   7.051 -0.4498  0.1883  0.6443
 2302TIP3   OH228464   3.739   6.341   8.388 -0.1765  0.4781  0.3155
 2302TIP3    H128465   3.694   6.335   8.304 -2.4348 -0.8524  1.5158
 2302TIP3    H228466   3.775   6.430   8.390  1.1264  0.1262 -2.5515
 2303TIP3   OH228467   5.041   4.597   0.264  0.2731  0.2374  0.6737
 2303TIP3    H128468   5.080   4.510   0.253  0.2806  0.3282 -0.0701
 2303TIP3    H228469   4.960   4.581   0.313 -0.1923 -0.3088 -0.2508
 2304TIP3   OH228470   1.332   2.621   1.444  0.4880 -0.2169 -0.5765
 2304TIP3    H128471   1.344   2.689   1.378  0.4855 -1.5107 -1.9680
 2304TIP3    H228472   1.412   2.625   1.497  0.4197  0.9527 -0.5227
 2305TIP3   OH228473   2.914   0.508   7.955  0.4500  0.0132 -0.2580
 2305TIP3    H128474   2.840   0.566   7.936 -0.1728 -1.2209 -1.7945
 2305TIP3    H228475   2.887   0.461   8.034 -0.2318 -0.1093 -0.5533
 2306TIP3   OH228476   6.688   2.802   1.369  0.0900 -0.0209 -0.1437
 2306TIP3    H128477   6.762   2.770   1.421 -0.2904 -0.6612  0.0239
 2306TIP3    H228478   6.626   2.835   1.434  0.0869  0.1981 -0.2591
 2307TIP3   OH228479   0.221   5.843   0.517  0.0589  0.8701  0.0562
 2307TIP3    H128480   0.272   5.894   0.579  0.1319  1.2400 -0.2987
 2307TIP3    H228481   0.286   5.795   0.466 -0.0566 -0.5250  1.1736
 2308TIP3   OH228482   6.442   5.929   2.213  0.4391  0.2466  0.0016
 2308TIP3    H128483   6.514   5.946   2.274  0.1021  1.9081 -0.0021
 2308TIP3    H228484   6.450   5.999   2.148 -1.4425  0.7325  0.2605
 2309TIP3   OH228485   6.213   3.197   2.247 -0.2069  0.1409 -0.5289
 2309TIP3    H128486   6.187   3.258   2.316  1.1484 -0.5242  0.5928
 2309TIP3    H228487   6.282   3.144   2.285 -1.7760 -2.6003 -1.2357
 2310TIP3   OH228488   5.588   1.464   1.513  0.4112 -0.5151 -0.4190
 2310TIP3    H128489   5.650   1.415   1.566 -0.1999 -2.1342 -1.1457
 2310TIP3    H228490   5.502   1.437   1.545  0.0431  1.3970  0.3090
 2311TIP3   OH228491   1.719   6.510   7.538  0.1266  0.0700 -0.0722
 2311TIP3    H128492   1.770   6.575   7.490  1.0420  0.2016  1.0261
 2311TIP3    H228493   1.781   6.438   7.552 -0.0602  0.1129  1.0429
 2312TIP3   OH228494   4.092   2.611   6.830 -0.2867 -0.0735 -0.3399
 2312TIP3    H128495   4.141   2.682   6.870  0.5110 -0.2835 -0.9136
 2312TIP3    H228496   4.140   2.591   6.749 -2.7014  1.4225 -2.3004
 2313TIP3   OH228497   6.192   5.967   7.743  0.0695  0.6537 -0.1708
 2313TIP3    H128498   6.177   6.050   7.789  1.6967  0.9783 -0.1601
 2313TIP3    H228499   6.143   5.902   7.794 -1.5836  1.6412 -0.4232
 2314TIP3   OH228500   6.132   5.056   0.337  0.1619 -0.6533 -0.0131
 2314TIP3    H128501   6.176   4.972   0.355 -0.2991 -1.1097 -1.0006
 2314TIP3    H228502   6.134   5.064   0.242 -2.2956 -0.9150 -0.1495
 2315TIP3   OH228503   0.388   0.314   2.370 -0.2669 -0.0560  0.1249
 2315TIP3    H128504   0.376   0.220   2.356 -0.8370  0.0277  0.0469
 2315TIP3    H228505   0.431   0.320   2.456  0.0925 -0.3984 -0.0246
 2316TIP3   OH228506   0.271   1.865   2.074 -0.3280 -0.7977 -0.2353
 2316TIP3    H128507   0.352   1.822   2.100 -0.6669 -1.3271 -0.0533
 2316TIP3    H228508   0.248   1.827   1.989 -0.1223 -0.2840 -0.5288
 2317TIP3   OH228509   2.467   1.918   1.897  0.1488 -0.0630  0.0898
 2317TIP3    H128510   2.524   1.842   1.901 -0.1939 -0.5322 -2.2480
 2317TIP3    H228511   2.380   1.883   1.881 -0.0776  0.7683 -0.6368
 2318TIP3   OH228512   3.395   5.815   0.459  0.7974  0.2369  0.6587
 2318TIP3    H128513   3.415   5.732   0.503  1.1183  1.2293  2.4962
 2318TIP3    H228514   3.468   5.873   0.483  1.7066  0.5007 -2.3058
 2319TIP3   OH228515   4.488   2.833   0.757  0.0395  0.0211 -0.6393
 2319TIP3    H128516   4.551   2.858   0.826 -0.7218  0.0324  0.0634
 2319TIP3    H228517   4.477   2.739   0.767 -1.0321  0.2051  0.1000
 2320TIP3   OH228518   0.293   5.527   0.648  0.1618 -0.1139  0.0375
 2320TIP3    H128519   0.337   5.612   0.656  1.1121 -0.6797  1.2771
 2320TIP3    H228520   0.361   5.464   0.669 -0.2913 -1.2589 -1.7860
 2321TIP3   OH228521   3.840   0.587   2.950  0.0773 -0.3455  0.1495
 2321TIP3    H128522   3.918   0.535   2.930  0.1728  0.1203 -0.7648
 2321TIP3    H228523   3.871   0.653   3.012  1.2633  1.8416 -2.5346
 2322TIP3   OH228524   1.088   3.289   0.348  0.8807 -0.2143  0.4392
 2322TIP3    H128525   1.162   3.318   0.295  1.1112 -1.8610 -0.1996
 2322TIP3    H228526   1.125   3.225   0.409 -0.1314 -1.9297 -0.6418
 2323TIP3   OH228527   4.392   2.090   2.386  0.6564  0.0068 -0.4565
 2323TIP3    H128528   4.344   2.066   2.465 -0.1744  2.1304 -0.2447
 2323TIP3    H228529   4.458   2.022   2.376  0.1412 -0.8439  1.5016
 2324TIP3   OH228530   5.094   0.800   1.558 -0.3238  0.2530  0.1370
 2324TIP3    H128531   5.174   0.839   1.521 -0.9571  0.4315 -1.0909
 2324TIP3    H228532   5.033   0.873   1.566 -0.3383  0.1377  1.1848
 2325TIP3   OH228533   4.480   6.027   1.266 -0.0258 -0.7158  0.2491
 2325TIP3    H128534   4.559   5.996   1.221 -1.4746 -1.4859 -1.9514
 2325TIP3    H228535   4.435   5.947   1.292 -0.7869 -0.3265  0.1453
 2326TIP3   OH228536   2.541   3.860   7.903  0.1645  0.1257 -0.4111
 2326TIP3    H128537   2.610   3.828   7.845 -1.9733  0.8699 -3.5866
 2326TIP3    H228538   2.473   3.892   7.845 -2.9753 -0.6213  2.5292
 2327TIP3   OH228539   2.650   1.418   2.352 -0.0814  0.2777  0.1162
 2327TIP3    H128540   2.704   1.426   2.431  1.2733 -1.5979 -0.5563
 2327TIP3    H228541   2.563   1.394   2.385  0.4203 -0.2837  1.0681
 2328TIP3   OH228542   6.019   4.243   7.379 -0.2274  0.1799  0.1284
 2328TIP3    H128543   6.052   4.171   7.325 -0.8234 -0.4206  0.5407
 2328TIP3    H228544   6.023   4.320   7.323 -2.1099 -0.6694 -1.2725
 2329TIP3   OH228545   1.876   1.742   7.558 -0.0866 -0.1085 -0.0530
 2329TIP3    H128546   1.945   1.699   7.609 -0.2246 -1.0928 -0.6699
 2329TIP3    H228547   1.894   1.717   7.468 -1.0781 -0.1270 -0.2528
 2330TIP3   OH228548   2.167   2.004   1.576 -0.6772 -0.1606  0.5610
 2330TIP3    H128549   2.214   1.921   1.565  0.4841  0.5262  0.1745
 2330TIP3    H228550   2.204   2.043   1.654 -0.7246  0.3182  0.3499
 2331TIP3   OH228551   5.435   5.362   3.285 -0.7147 -0.0724 -0.1488
 2331TIP3    H128552   5.495   5.404   3.224 -0.5903 -0.7984 -0.5448
 2331TIP3    H228553   5.372   5.430   3.308  0.3929  0.7728  0.4800
 2332TIP3   OH228554   5.877   1.155   8.505  0.4324 -0.0831 -0.4066
 2332TIP3    H128555   5.900   1.067   8.476 -0.3456 -0.5185  0.2636
 2332TIP3    H228556   5.961   1.198   8.521  0.8278 -0.4747 -1.3907
 2333TIP3   OH228557   1.550   2.060   1.260 -0.2872 -0.4976 -0.0309
 2333TIP3    H128558   1.464   2.093   1.289 -0.7857 -1.9752  0.2614
 2333TIP3    H228559   1.540   2.048   1.166  0.0781  0.6729 -0.2310
 2334TIP3   OH228560   0.206   0.962   1.992 -0.2472  0.2107 -0.2634
 2334TIP3    H128561   0.239   0.933   2.077 -0.3227  1.9356  0.3910
 2334TIP3    H228562   0.157   0.887   1.958  2.6074 -1.7364 -0.3833
 2335TIP3   OH228563   4.558   6.704   8.394  0.7056  0.5914  0.3279
 2335TIP3    H128564   4.554   6.685   8.488  2.2101  0.0378  0.3044
 2335TIP3    H228565   4.649   6.731   8.379  0.4051  0.9567 -0.9269
 2336TIP3   OH228566   1.114   1.458   1.367 -0.4616  0.6377 -0.1021
 2336TIP3    H128567   1.117   1.431   1.275 -1.3287 -0.1827  0.1027
 2336TIP3    H228568   1.106   1.377   1.416 -1.9087  1.1745  0.5890
 2337TIP3   OH228569   4.664   6.493   1.517  0.2415 -0.0327  0.2062
 2337TIP3    H128570   4.660   6.556   1.445  0.5014 -0.6682 -0.3723
 2337TIP3    H228571   4.655   6.407   1.475  1.4715 -0.4792  0.8052
 2338TIP3   OH228572   1.140   4.185   2.333  0.8361 -0.6340 -0.1628
 2338TIP3    H128573   1.067   4.176   2.272  0.3156 -1.1397  0.5196
 2338TIP3    H228574   1.161   4.095   2.359  1.7449 -0.4977 -0.3977
 2339TIP3   OH228575   1.264   3.418   7.869 -0.3061 -0.3665 -0.2754
 2339TIP3    H128576   1.275   3.512   7.859 -2.0818 -0.0746  0.1603
 2339TIP3    H228577   1.340   3.380   7.825  0.4167  1.2502 -0.4982
 2340TIP3   OH228578   3.563   1.404   7.975  0.1280 -0.3138 -0.1409
 2340TIP3    H128579   3.514   1.357   8.043  1.5368 -1.5466  0.0645
 2340TIP3    H228580   3.588   1.487   8.016 -1.6462  0.3238 -0.2212
 2341TIP3   OH228581   0.091   3.361   7.893 -0.7265 -0.6902  0.2365
 2341TIP3    H128582   0.150   3.420   7.846  0.3148 -0.8162  1.3731
 2341TIP3    H228583   0.068   3.408   7.973 -3.2698 -0.0612 -0.7495
 2342TIP3   OH228584   2.316   3.212   2.336  0.4469 -0.5567 -0.3041
 2342TIP3    H128585   2.406   3.209   2.305  0.9806 -1.7419  1.2114
 2342TIP3    H228586   2.274   3.136   2.295  0.7520 -1.2724  0.6872
 2343TIP3   OH228587   0.442   0.526   3.188 -0.0856  0.3112  0.0359
 2343TIP3    H128588   0.415   0.609   3.226  0.0737  0.4042 -0.0491
 2343TIP3    H228589   0.536   0.536   3.173  0.2958 -0.5170  1.6304
 2344TIP3   OH228590   3.131   5.690   1.912  0.2316 -0.4665  0.6374
 2344TIP3    H128591   3.125   5.668   2.004  1.4646 -1.1654  0.5743
 2344TIP3    H228592   3.070   5.631   1.868  1.3635 -1.8020  0.7835
 2345TIP3   OH228593   5.264   5.203   1.996  0.0053  0.0329 -0.1168
 2345TIP3    H128594   5.312   5.270   2.045  2.0542 -0.2459 -1.6213
 2345TIP3    H228595   5.173   5.231   2.001  0.5264  1.6506  1.2588
 2346TIP3   OH228596   1.124   0.963   0.988 -0.0753  0.5330  0.8108
 2346TIP3    H128597   1.051   0.981   0.929 -0.7046  0.8861  1.6872
 2346TIP3    H228598   1.090   0.898   1.049  0.5395  0.2548  0.8695
 2347TIP3   OH228599   1.588   6.583   8.212 -0.0758  0.4518  0.0527
 2347TIP3    H128600   1.595   6.488   8.200 -0.8243 -0.1503  3.3649
 2347TIP3    H228601   1.656   6.604   8.276  0.3785  2.3040 -0.9400
 2348TIP3   OH228602   6.849   4.461   7.995 -0.3046 -0.2286  0.1718
 2348TIP3    H128603   6.916   4.402   7.961 -0.4024 -0.0167 -0.3914
 2348TIP3    H228604   6.890   4.503   8.071  0.0273 -0.4646  0.1216
 2349TIP3   OH228605   3.553   2.909   1.474  0.1079 -0.5345  0.6896
 2349TIP3    H128606   3.594   2.859   1.545 -1.9275  0.4920  2.7031
 2349TIP3    H228607   3.620   2.972   1.447  1.3149 -1.7034  0.8361
 2350TIP3   OH228608   2.668   4.087   8.318  0.0906 -0.2232  0.6199
 2350TIP3    H128609   2.633   4.172   8.344 -0.7804 -0.8725  1.6955
 2350TIP3    H228610   2.599   4.048   8.264  1.1434  0.3739 -1.2073
 2351TIP3   OH228611   4.083   5.524   1.279  0.3676 -0.6143 -0.3370
 2351TIP3    H128612   4.020   5.589   1.309  1.5043 -0.0186  0.8652
 2351TIP3    H228613   4.071   5.449   1.338  0.0953 -0.9054 -0.7575
 2352TIP3   OH228614   3.084   2.478   1.465  0.7105  0.0782  0.1771
 2352TIP3    H128615   3.130   2.432   1.536 -0.8171 -2.0080 -0.0817
 2352TIP3    H228616   3.150   2.485   1.395  1.8529  1.0161  1.3016
 2353TIP3   OH228617   0.407   5.473   1.811  0.1106 -0.6172 -0.1623
 2353TIP3    H128618   0.467   5.448   1.740 -2.5082 -2.0753 -2.0516
 2353TIP3    H228619   0.355   5.394   1.826  0.6325 -0.4006  3.6037
 2354TIP3   OH228620   6.387   6.091   7.431  0.1010  0.3089 -0.8646
 2354TIP3    H128621   6.367   6.062   7.342  2.2364 -2.7921 -0.4852
 2354TIP3    H228622   6.376   6.013   7.485  3.1617  0.9033  0.8685
 2355TIP3   OH228623   1.448   1.402   8.157 -0.0648 -0.0455 -0.1494
 2355TIP3    H128624   1.408   1.444   8.081 -2.3047 -1.8200 -0.0710
 2355TIP3    H228625   1.503   1.470   8.196 -0.0196  1.3586 -2.4804
 2356TIP3   OH228626   6.710   2.252   1.251  0.4301  0.1794  0.0348
 2356TIP3    H128627   6.803   2.266   1.265  0.3306 -0.4619  1.6468
 2356TIP3    H228628   6.679   2.216   1.335 -0.8086 -1.7782 -1.1679
 2357TIP3   OH228629   3.130   3.971   8.130  0.2165 -0.0042 -0.5348
 2357TIP3    H128630   3.116   3.939   8.041  2.1807  0.1700 -0.9655
 2357TIP3    H228631   3.139   4.066   8.121  0.3719  0.0207 -0.1563
 2358TIP3   OH228632   6.363   0.586   1.743 -0.1575 -0.1711  0.4372
 2358TIP3    H128633   6.327   0.532   1.814 -1.3714 -0.1660 -0.1526
 2358TIP3    H228634   6.287   0.607   1.688  0.7074  0.1262 -0.6712
 2359TIP3   OH228635   1.607   3.354   8.506  0.1362  0.3937 -0.1376
 2359TIP3    H128636   1.609   3.409   8.428 -0.9950  0.6666  0.0050
 2359TIP3    H228637   1.515   3.332   8.517  0.5753 -1.8261 -0.3726
 2360TIP3   OH228638   5.923   3.741   0.463 -0.2784 -0.1970 -0.2878
 2360TIP3    H128639   5.879   3.793   0.395  1.0663  1.0179 -0.2852
 2360TIP3    H228640   5.919   3.651   0.431 -0.3780  0.2491 -1.5919
 2361TIP3   OH228641   1.967   5.336   7.357 -0.4270 -0.2670 -0.0717
 2361TIP3    H128642   1.907   5.263   7.345 -2.0890  1.2539 -1.7573
 2361TIP3    H228643   2.027   5.331   7.282 -1.0069  0.4566 -0.6045
 2362TIP3   OH228644   5.488   2.224   2.015  0.2410  0.1207 -0.5771
 2362TIP3    H128645   5.575   2.250   2.043 -0.8459  3.9156 -0.1969
 2362TIP3    H228646   5.429   2.272   2.072 -2.0997 -0.4330 -2.3581
 2363TIP3   OH228647   1.647   0.398   0.598 -0.3450 -0.1075  0.0125
 2363TIP3    H128648   1.552   0.392   0.586 -0.3222 -1.4275  0.3962
 2363TIP3    H228649   1.665   0.492   0.592 -1.5659  0.1032 -0.8232
 2364TIP3   OH228650   1.970   6.699   2.516  0.2176 -0.0402  0.5888
 2364TIP3    H128651   1.933   6.675   2.601  0.5957  0.3843  0.8782
 2364TIP3    H228652   1.900   6.679   2.454 -0.0544 -0.3832  0.9907
 2365TIP3   OH228653   4.280   2.066   0.988  0.2628  0.0127  0.0300
 2365TIP3    H128654   4.281   2.151   0.944 -0.6496 -0.3510 -0.7321
 2365TIP3    H228655   4.194   2.029   0.966 -1.1723  0.6729  3.7758
 2366TIP3   OH228656   0.048   6.100   2.248 -0.7106 -0.8337  0.2005
 2366TIP3    H128657   0.102   6.027   2.278  0.9986  0.6284  0.8726
 2366TIP3    H228658  -0.003   6.125   2.325 -0.0160 -0.2551  0.4869
 2367TIP3   OH228659   3.687   5.110   0.560  0.4942 -0.1538  0.6987
 2367TIP3    H128660   3.605   5.067   0.583  1.1826 -1.1863  1.3231
 2367TIP3    H228661   3.723   5.140   0.644  0.0956  1.5814  0.2960
 2368TIP3   OH228662   0.816   1.714   2.494 -0.3936 -0.1547 -0.0655
 2368TIP3    H128663   0.849   1.625   2.510  2.3998  0.9529  0.8577
 2368TIP3    H228664   0.803   1.717   2.399  2.1596 -0.7736 -0.5161
 2369TIP3   OH228665   6.106   3.910   2.486  0.0649  0.0863  0.3221
 2369TIP3    H128666   6.063   3.956   2.558 -1.9935 -0.0434 -0.7356
 2369TIP3    H228667   6.053   3.831   2.474 -0.8653  1.0149 -2.5087
 2370TIP3   OH228668   6.316   4.533   0.962  0.0386  0.1439 -0.3158
 2370TIP3    H128669   6.301   4.475   1.037 -0.2813 -0.8100 -1.0982
 2370TIP3    H228670   6.410   4.551   0.963  0.0239  0.1929  0.3524
 2371TIP3   OH228671   1.029   1.961   7.334 -0.3273  0.2520 -0.3400
 2371TIP3    H128672   0.936   1.966   7.316 -0.2824  3.6874 -0.2061
 2371TIP3    H228673   1.035   1.916   7.418 -1.5184 -2.8787 -1.7705
 2372TIP3   OH228674   0.354   3.916   1.593 -0.3295 -0.3624 -0.0792
 2372TIP3    H128675   0.296   3.902   1.517 -0.4587 -0.0280 -0.0447
 2372TIP3    H228676   0.406   3.836   1.599  0.8387  0.2450 -1.5192
 2373TIP3   OH228677   6.150   6.554   0.125 -0.1707  0.5188  0.0493
 2373TIP3    H128678   6.075   6.495   0.130  0.5679 -0.4009  0.7881
 2373TIP3    H228679   6.209   6.511   0.062 -0.3372  1.3466 -0.6952
 2374TIP3   OH228680   2.658   0.678   7.416 -0.0032 -0.4304  0.3518
 2374TIP3    H128681   2.736   0.669   7.471  0.4142 -1.4491 -0.3839
 2374TIP3    H228682   2.672   0.616   7.345 -1.2529 -0.2425 -0.0707
 2375TIP3   OH228683   4.524   6.836   3.274 -0.2848 -0.2458  0.0517
 2375TIP3    H128684   4.555   6.832   3.364 -2.1465 -1.7313  0.6856
 2375TIP3    H228685   4.594   6.794   3.223 -0.1221 -1.2988  1.1009
 2376TIP3   OH228686   2.191   3.031   2.171  0.1101 -0.3328  0.2846
 2376TIP3    H128687   2.217   2.964   2.108 -1.0086  0.7995 -1.4863
 2376TIP3    H228688   2.098   3.015   2.187  0.0594  0.2199  0.5866
 2377TIP3   OH228689   6.150   3.884   0.067 -0.2155  0.3756 -0.3740
 2377TIP3    H128690   6.158   3.932  -0.015 -2.3232  1.4419 -0.0532
 2377TIP3    H228691   6.207   3.931   0.128 -2.1211  2.5283 -0.1056
 2378TIP3   OH228692   5.629   6.807   3.030  0.2136 -0.5600 -0.1406
 2378TIP3    H128693   5.539   6.819   3.000  0.4613 -0.0885 -0.7001
 2378TIP3    H228694   5.683   6.816   2.952  0.6396 -2.6119 -0.1256
 2379TIP3   OH228695   0.453   4.449   8.370  0.4794  0.2967  0.1866
 2379TIP3    H128696   0.435   4.368   8.417  2.8473 -0.1864  0.3837
 2379TIP3    H228697   0.534   4.482   8.409 -0.1471  2.5185 -0.2224
 2380TIP3   OH228698   1.962   1.403   0.387 -0.7800  0.4748  0.1513
 2380TIP3    H128699   1.928   1.420   0.475 -0.3985  0.9002  0.2192
 2380TIP3    H228700   2.042   1.353   0.401 -0.7511  0.4899  0.0445
 2381TIP3   OH228701   1.031   6.618   3.182  0.1964  0.0092  0.3966
 2381TIP3    H128702   1.063   6.707   3.164  0.8340 -0.0508  1.1731
 2381TIP3    H228703   1.110   6.568   3.202 -0.1889 -0.6726  0.2302
 2382TIP3   OH228704   5.162   5.254   0.162 -0.1630 -0.5353 -0.7880
 2382TIP3    H128705   5.176   5.160   0.166  0.9057 -0.3512  0.7057
 2382TIP3    H228706   5.237   5.291   0.210 -1.6332  0.9486  0.4618
 2383TIP3   OH228707   2.723   3.362   7.865 -0.0919  0.5501  0.1269
 2383TIP3    H128708   2.709   3.403   7.950 -1.5560  0.9167 -0.2558
 2383TIP3    H228709   2.685   3.424   7.802 -1.2610 -0.8161 -0.5658
 2384TIP3   OH228710   3.104   6.323   7.164  0.5907  0.0026  0.3280
 2384TIP3    H128711   3.013   6.295   7.149  0.6080 -0.4178  0.9575
 2384TIP3    H228712   3.119   6.392   7.100 -0.3764  0.5063  0.6192
 2385TIP3   OH228713   4.977   2.524   1.221  0.1748 -0.3858  0.3586
 2385TIP3    H128714   4.897   2.474   1.206  1.1148 -1.8936  0.0941
 2385TIP3    H228715   4.986   2.580   1.144 -1.4175  0.9887  1.1172
 2386TIP3   OH228716   2.517   5.658   1.522  0.4207 -0.1254  0.2360
 2386TIP3    H128717   2.484   5.653   1.433  0.9331  0.3657  0.0153
 2386TIP3    H228718   2.489   5.576   1.563 -0.5184  0.0005 -0.1270
 2387TIP3   OH228719   0.525   2.039   1.964 -0.2509  0.5298 -0.0997
 2387TIP3    H128720   0.535   1.947   1.988 -2.5210  0.5749  1.3819
 2387TIP3    H228721   0.464   2.038   1.890 -0.1431  0.8203 -0.1942
 2388TIP3   OH228722   2.621   6.067   0.965 -0.2060  0.2256  0.5853
 2388TIP3    H128723   2.681   6.124   0.916 -0.6796  0.1329 -0.1121
 2388TIP3    H228724   2.611   5.990   0.909 -0.5680  0.0121  0.9419
 2389TIP3   OH228725   2.381   5.663   1.271 -0.0189  0.4279 -0.5340
 2389TIP3    H128726   2.376   5.575   1.233 -2.2157  0.6508 -0.9143
 2389TIP3    H228727   2.398   5.720   1.196  1.0316  0.3967 -0.3400
 2390TIP3   OH228728   4.089   0.906   0.498 -0.7790 -0.0663  0.2469
 2390TIP3    H128729   4.068   0.923   0.406  1.2110  0.8715 -0.0903
 2390TIP3    H228730   4.135   0.985   0.527  1.2882 -1.4959  1.1368
 2391TIP3   OH228731   2.858   6.115   1.186 -0.0063 -0.6134 -0.0055
 2391TIP3    H128732   2.932   6.062   1.157  0.2150 -0.3328  0.0547
 2391TIP3    H228733   2.876   6.133   1.279  0.6042  0.7261 -0.3673
 2392TIP3   OH228734   6.729   3.971   7.093 -0.2933 -0.1132  0.2710
 2392TIP3    H128735   6.655   4.023   7.061 -1.3327 -1.1498  0.9153
 2392TIP3    H228736   6.769   4.025   7.161 -0.5056  0.4245 -0.0246
 2393TIP3   OH228737   3.982   2.370   6.988  0.6861 -0.3945  0.5846
 2393TIP3    H128738   4.015   2.454   6.956  0.8589 -0.2013  1.2530
 2393TIP3    H228739   4.060   2.317   7.002  0.6344 -0.3739  0.9602
 2394TIP3   OH228740   5.186   2.474   8.473  0.2790  0.3233  0.1793
 2394TIP3    H128741   5.193   2.567   8.494  0.0091  0.7653 -1.4819
 2394TIP3    H228742   5.245   2.430   8.535  1.7888  1.7862 -0.1378
 2395TIP3   OH228743   6.652   0.089   2.531 -0.5348 -0.2692 -0.3020
 2395TIP3    H128744   6.695   0.004   2.530 -0.8692 -0.4673  0.7876
 2395TIP3    H228745   6.608   0.093   2.616 -3.3313 -0.4058 -1.6211
 2396TIP3   OH228746   0.519   1.543   0.925 -0.5872 -0.1618  0.1517
 2396TIP3    H128747   0.538   1.602   0.998 -1.0112 -0.4440  0.4893
 2396TIP3    H228748   0.432   1.507   0.944 -0.0081 -1.5147  0.3660
 2397TIP3   OH228749   1.099   5.455   0.653 -0.1501  0.5710 -0.0640
 2397TIP3    H128750   1.190   5.444   0.627 -0.2548  0.9746 -0.6276
 2397TIP3    H228751   1.065   5.365   0.658  1.4266 -0.0344  4.6898
 2398TIP3   OH228752   1.951   0.093   7.343  0.0171  0.3674  0.3070
 2398TIP3    H128753   1.909   0.047   7.416  0.0995 -0.7310 -0.3042
 2398TIP3    H228754   1.879   0.131   7.294 -0.0499  0.9843  0.8708
 2399TIP3   OH228755   4.391   3.848   1.517 -0.3545  0.0279 -0.5225
 2399TIP3    H128756   4.310   3.835   1.565  0.2434 -0.0597  0.4944
 2399TIP3    H228757   4.419   3.760   1.493 -0.0520 -0.0298  0.0141
 2400TIP3   OH228758   2.268   6.002   1.177  0.2476 -0.4956 -0.5672
 2400TIP3    H128759   2.355   5.963   1.186 -0.3896 -1.5756  1.6385
 2400TIP3    H228760   2.284   6.097   1.177  1.3423 -0.5744  2.3177
 2401TIP3   OH228761   4.125   2.740   0.897 -0.5860 -0.0598 -0.8181
 2401TIP3    H128762   4.198   2.738   0.958 -1.1809 -0.7185 -0.1183
 2401TIP3    H228763   4.094   2.831   0.900  0.1662  0.2185 -1.0981
 2402TIP3   OH228764   6.577   3.738   1.798  0.3018 -0.2003  0.4440
 2402TIP3    H128765   6.545   3.661   1.846  0.5391 -0.1805  0.6374
 2402TIP3    H228766   6.651   3.706   1.748 -0.5949 -0.4589 -0.7528
 2403TIP3   OH228767   3.034   5.973   2.179  0.0528  0.4674 -0.1105
 2403TIP3    H128768   2.958   6.029   2.161  0.0150  0.2532 -0.6366
 2403TIP3    H228769   3.018   5.938   2.267 -1.2298 -0.7876 -0.7950
 2404TIP3   OH228770   2.769   1.770   2.354 -0.0451  0.0971  0.2087
 2404TIP3    H128771   2.848   1.794   2.306 -0.3967  1.6673  0.3704
 2404TIP3    H228772   2.801   1.725   2.432  0.6282 -0.3224 -0.2997
 2405TIP3   OH228773   1.118   2.289   0.852 -0.0855  0.1163  0.0521
 2405TIP3    H128774   1.166   2.365   0.885  1.2257 -0.4184 -0.5321
 2405TIP3    H228775   1.109   2.306   0.758 -0.2150 -0.2348 -0.0004
 2406TIP3   OH228776   4.025   2.874   2.019 -0.0281  0.0302  0.0767
 2406TIP3    H128777   4.111   2.888   1.980  0.6143 -2.7622  0.2897
 2406TIP3    H228778   4.040   2.809   2.087 -1.9630  1.1972  1.7493
 2407TIP3   OH228779   3.599   5.647   0.616 -0.2465 -0.6805 -0.2925
 2407TIP3    H128780   3.625   5.697   0.693  2.1528 -0.6543 -1.0574
 2407TIP3    H228781   3.597   5.556   0.646  0.0795 -0.6093 -0.0515
 2408TIP3   OH228782   2.528   0.760   2.298 -0.2054 -0.3424 -0.4779
 2408TIP3    H128783   2.563   0.703   2.367  0.9984 -0.9893 -1.5914
 2408TIP3    H228784   2.530   0.848   2.337  1.9870 -0.4529 -0.1892
 2409TIP3   OH228785   4.220   5.539   0.442  0.0213 -0.0691 -0.1950
 2409TIP3    H128786   4.221   5.634   0.434 -0.2901 -0.1459 -1.5236
 2409TIP3    H228787   4.309   5.516   0.468  0.1265  0.5799  0.0395
 2410TIP3   OH228788   0.419   1.028   1.834 -0.5217 -0.1904 -0.0220
 2410TIP3    H128789   0.437   1.121   1.851  0.4632 -0.3147 -0.3134
 2410TIP3    H228790   0.363   1.001   1.906 -0.8135  0.6262  0.0728
 2411TIP3   OH228791   6.512   6.730   2.753  0.3588  0.4539 -0.3211
 2411TIP3    H128792   6.539   6.821   2.743 -1.1755  1.2380  1.8043
 2411TIP3    H228793   6.589   6.686   2.789  0.6426  1.2926  0.1262
 2412TIP3   OH228794   1.393   2.956   7.526  0.3663  0.2146  0.3721
 2412TIP3    H128795   1.444   2.948   7.445  1.2039  0.0047  0.9055
 2412TIP3    H228796   1.307   2.919   7.503  1.3589 -2.2315  0.2494
 2413TIP3   OH228797   0.788   0.140   0.131  0.0001 -0.0367  0.3841
 2413TIP3    H128798   0.882   0.160   0.135 -0.0253 -0.0630  1.4330
 2413TIP3    H228799   0.779   0.057   0.177 -0.4975 -0.2269 -0.0417
 2414TIP3   OH228800   3.547   1.562   8.396  0.4824  0.4925 -0.7022
 2414TIP3    H128801   3.482   1.546   8.327  0.7929 -0.5682 -0.7618
 2414TIP3    H228802   3.501   1.540   8.477 -0.3197  2.9774 -0.3792
 2415TIP3   OH228803   6.598   6.507   7.690  0.3824  0.1663  0.0868
 2415TIP3    H128804   6.637   6.424   7.662 -0.3276 -0.2061  0.1762
 2415TIP3    H228805   6.627   6.517   7.781  1.8221  0.8515 -0.4166
 2416TIP3   OH228806   2.716   6.063   1.569  0.8742  0.4630 -0.0175
 2416TIP3    H128807   2.637   6.015   1.546  0.8226  0.7980 -0.5509
 2416TIP3    H228808   2.787   6.003   1.549  0.7392 -0.2209  1.3905
 2417TIP3   OH228809   5.115   6.410   2.898  0.0433 -0.0426  0.2125
 2417TIP3    H128810   5.057   6.367   2.962 -2.3566  1.4513 -0.8309
 2417TIP3    H228811   5.057   6.462   2.843  2.2910  0.6426 -1.7058
 2418TIP3   OH228812   4.567   4.650   2.478  0.0999 -1.1211  0.8287
 2418TIP3    H128813   4.583   4.622   2.388 -0.0703 -1.5002  0.9138
 2418TIP3    H228814   4.480   4.614   2.499 -0.3770 -0.0406  0.7486
 2419TIP3   OH228815   6.907   0.329   0.339 -0.0102 -0.0540 -0.3814
 2419TIP3    H128816   6.903   0.415   0.298 -2.3209  0.7271  1.3036
 2419TIP3    H228817   6.993   0.326   0.380  0.4217  1.0992 -1.1526
 2420TIP3   OH228818   1.828   6.774   8.091 -0.3384  0.4390  0.1767
 2420TIP3    H128819   1.766   6.812   8.030 -0.8922 -0.3427  0.2360
 2420TIP3    H228820   1.819   6.679   8.079  0.7824  0.3102  0.2440
 2421TIP3   OH228821   2.819   2.340   3.204 -0.0703 -0.2530 -0.5725
 2421TIP3    H128822   2.724   2.349   3.211  0.0544  1.4738 -0.6820
 2421TIP3    H228823   2.854   2.425   3.232  1.4170 -0.6667 -1.0426
 2422TIP3   OH228824   6.190   2.444   7.986 -0.5620 -0.1974  0.8619
 2422TIP3    H128825   6.151   2.357   7.989 -0.6496 -0.1570  0.9231
 2422TIP3    H228826   6.277   2.434   8.023 -0.1611 -0.4738 -0.1388
 2423TIP3   OH228827   6.819   3.168   1.946  0.1361 -0.3512  0.4511
 2423TIP3    H128828   6.757   3.240   1.960  0.5569 -0.0577  0.8522
 2423TIP3    H228829   6.860   3.155   2.031  1.0122 -0.1722  0.0641
 2424TIP3   OH228830   6.125   6.573   1.884 -0.3774 -0.3240 -0.2250
 2424TIP3    H128831   6.189   6.524   1.936 -1.3980 -1.7919 -0.2668
 2424TIP3    H228832   6.054   6.592   1.945 -0.6235 -0.1671 -0.5571
 2425TIP3   OH228833   4.360   3.546   1.680  0.3326  0.2293  0.4866
 2425TIP3    H128834   4.343   3.578   1.769  0.5550  0.9516  0.2788
 2425TIP3    H228835   4.344   3.452   1.685 -1.4507  0.5072  0.8610
 2426TIP3   OH228836   1.218   4.702   0.645  0.5609 -0.1585 -0.7777
 2426TIP3    H128837   1.238   4.687   0.553  0.0237 -0.4797 -0.8450
 2426TIP3    H228838   1.302   4.691   0.690  1.0832  1.2559 -1.3603
 2427TIP3   OH228839   5.667   5.016   8.521 -0.2370  0.2351  0.2527
 2427TIP3    H128840   5.752   5.033   8.563 -0.7009 -0.2748  1.4510
 2427TIP3    H228841   5.609   4.992   8.594 -1.7922  1.9156 -0.3662
 2428TIP3   OH228842   1.712   5.438   2.656  0.3119 -0.1079 -0.0826
 2428TIP3    H128843   1.687   5.359   2.703 -0.2020 -1.3726 -2.3581
 2428TIP3    H228844   1.775   5.481   2.714  2.8281 -3.6035  0.0922
 2429TIP3   OH228845   1.332   3.125   0.287 -0.0084  0.0997  0.6054
 2429TIP3    H128846   1.413   3.148   0.242 -0.5009  1.9651  0.5904
 2429TIP3    H228847   1.277   3.087   0.220  0.1226  0.7188  0.1333
 2430TIP3   OH228848   2.921   2.005   7.589 -0.8379  0.1786 -0.2485
 2430TIP3    H128849   2.831   1.975   7.578 -1.9437  2.9862  0.3152
 2430TIP3    H228850   2.947   2.035   7.501 -1.6519  2.1880  0.1293
 2431TIP3   OH228851   6.235   6.260   0.188  0.3723  0.1354  0.3149
 2431TIP3    H128852   6.142   6.264   0.163 -0.0189  0.3295  1.7531
 2431TIP3    H228853   6.244   6.325   0.257  1.7082  0.4611 -0.1464
 2432TIP3   OH228854   2.135   6.396   1.739 -0.4355  0.0598 -0.4137
 2432TIP3    H128855   2.070   6.388   1.809  0.2950  1.3593  0.4453
 2432TIP3    H228856   2.206   6.337   1.764 -1.2952 -1.4943 -1.4401
 2433TIP3   OH228857   0.556   2.531   7.255 -0.3369 -0.1092 -0.0952
 2433TIP3    H128858   0.593   2.583   7.326 -0.9371 -0.2429  0.3277
 2433TIP3    H228859   0.527   2.595   7.190  0.8752 -0.0173 -0.5611
 2434TIP3   OH228860   3.499   3.734   6.883 -0.1483 -0.3313 -0.2547
 2434TIP3    H128861   3.528   3.794   6.952  0.7534 -0.6154 -0.3842
 2434TIP3    H228862   3.571   3.672   6.873 -0.2091 -0.2186 -1.5540
 2435TIP3   OH228863   6.714   0.955   1.494 -0.6295  0.1533 -0.1084
 2435TIP3    H128864   6.708   0.986   1.404  0.3042 -0.8808 -0.5581
 2435TIP3    H228865   6.780   0.886   1.491 -1.4170 -0.7080  1.1488
 2436TIP3   OH228866   5.053   6.604   7.626  0.3635  0.2616 -0.3054
 2436TIP3    H128867   5.132   6.653   7.648  0.0432  0.2643  0.9550
 2436TIP3    H228868   4.992   6.623   7.698 -0.1013 -1.2226 -0.2577
 2437TIP3   OH228869   2.714   4.526   2.151  0.2539  0.0301  0.2805
 2437TIP3    H128870   2.695   4.436   2.177 -0.5511  0.2055  0.3247
 2437TIP3    H228871   2.642   4.577   2.188  1.0106  0.7772  0.7475
 2438TIP3   OH228872   2.758   0.369   2.509 -0.2284  0.4235 -0.4436
 2438TIP3    H128873   2.770   0.370   2.604  3.3837 -0.5467 -0.7418
 2438TIP3    H228874   2.847   0.367   2.474 -1.4416  0.4892 -3.8790
 2439TIP3   OH228875   2.886   4.372   1.524  0.7579  0.4246 -0.2403
 2439TIP3    H128876   2.798   4.366   1.487  1.0298 -1.5078 -0.6781
 2439TIP3    H228877   2.912   4.463   1.508 -0.8166  0.8081 -0.8668
 2440TIP3   OH228878   3.251   2.089   8.110  0.5810  0.2966 -0.3413
 2440TIP3    H128879   3.293   2.163   8.154 -0.0677 -0.2139  1.1965
 2440TIP3    H228880   3.285   2.093   8.020  1.1285  2.0029 -0.1046
 2441TIP3   OH228881   0.871   0.792   1.393 -0.0250  0.2396  0.3059
 2441TIP3    H128882   0.871   0.747   1.477 -1.3704  3.0712  1.9454
 2441TIP3    H228883   0.784   0.831   1.385  0.3421  0.7686 -2.0254
 2442TIP3   OH228884   4.439   3.954   8.064  0.1415  0.2235  0.3212
 2442TIP3    H128885   4.516   3.984   8.016 -1.2894  1.3532 -1.4442
 2442TIP3    H228886   4.445   3.859   8.062  0.9501  0.2754 -0.7521
 2443TIP3   OH228887   2.741   5.503   0.852  0.0908  0.0551 -0.4571
 2443TIP3    H128888   2.678   5.482   0.782  1.6977 -1.4640 -1.5401
 2443TIP3    H228889   2.761   5.418   0.892  0.3701  0.7098  0.8272
 2444TIP3   OH228890   2.894   5.516   1.660 -0.1551  0.3848  0.7809
 2444TIP3    H128891   2.876   5.513   1.754 -0.6978 -0.3069  0.6597
 2444TIP3    H228892   2.865   5.603   1.633  0.6206  0.8433  1.3697
 2445TIP3   OH228893   5.749   2.057   1.882 -0.1506  0.4397 -0.2706
 2445TIP3    H128894   5.716   1.994   1.947 -1.8932  0.5191 -1.0006
 2445TIP3    H228895   5.841   2.069   1.904 -0.5478  0.0379  1.8375
 2446TIP3   OH228896   5.677   0.871   2.096 -0.0612 -0.4960  0.4527
 2446TIP3    H128897   5.748   0.851   2.035  1.0798 -1.0152  1.8841
 2446TIP3    H228898   5.707   0.835   2.180 -1.6693 -0.0044  1.2773
 2447TIP3   OH228899   4.397   0.686   0.495  0.8835  0.7846  0.4959
 2447TIP3    H128900   4.317   0.689   0.443  0.6317 -0.0893  0.8173
 2447TIP3    H228901   4.401   0.773   0.537  0.2932  0.9596  0.2009
 2448TIP3   OH228902   5.262   1.974   7.945 -0.2380 -1.2420  0.3726
 2448TIP3    H128903   5.214   1.931   8.017 -2.2828 -0.8466 -0.6638
 2448TIP3    H228904   5.231   1.928   7.866 -0.8664  0.7118 -0.5701
 2449TIP3   OH228905   2.971   6.364   0.430  0.1788 -0.4084  0.5488
 2449TIP3    H128906   2.958   6.394   0.340 -0.0552  0.3270  0.8180
 2449TIP3    H228907   2.990   6.271   0.422 -1.2675 -0.6747 -0.1758
 2450TIP3   OH228908   4.352   2.923   1.422 -0.5974 -0.6064  0.3725
 2450TIP3    H128909   4.417   2.855   1.436 -1.1773 -1.3553 -0.4017
 2450TIP3    H228910   4.272   2.888   1.461 -0.9774 -0.5191 -0.3051
 2451TIP3   OH228911   3.465   0.115   7.339  0.3191  0.3088 -0.0462
 2451TIP3    H128912   3.494   0.029   7.311  0.3187  0.6409 -1.1191
 2451TIP3    H228913   3.545   0.163   7.358  0.3028 -0.0980  1.1402
 2452TIP3   OH228914   6.065   5.172   7.437 -0.1003 -0.1601 -0.0939
 2452TIP3    H128915   6.025   5.174   7.350  0.7614 -2.5388 -0.6219
 2452TIP3    H228916   6.124   5.248   7.438 -0.9795  0.5603 -1.1340
 2453TIP3   OH228917   6.586   6.489   2.894  0.0865 -0.0154  0.0434
 2453TIP3    H128918   6.499   6.516   2.923 -0.0398  0.4010 -0.6947
 2453TIP3    H228919   6.595   6.400   2.927 -0.7962 -0.2226 -0.2462
 2454TIP3   OH228920   2.521   1.620   1.585 -0.2418  0.3532  0.3578
 2454TIP3    H128921   2.466   1.697   1.575 -1.6175 -0.7850 -1.4373
 2454TIP3    H228922   2.607   1.647   1.553 -0.4857  1.3674  0.5399
 2455TIP3   OH228923   0.639   5.222   1.963 -0.0497  0.3865 -0.4159
 2455TIP3    H128924   0.571   5.217   2.030  1.2593 -2.2946  0.8511
 2455TIP3    H228925   0.603   5.171   1.890  0.6343 -1.3447  0.3910
 2456TIP3   OH228926   4.062   2.712   0.620  0.3579  1.1223 -0.3767
 2456TIP3    H128927   4.129   2.780   0.616  1.2420  0.3710  0.7596
 2456TIP3    H228928   4.073   2.674   0.708  1.9214 -2.4371 -1.9027
 2457TIP3   OH228929   3.202   1.246   1.960  0.1217 -0.3929  0.1135
 2457TIP3    H128930   3.161   1.160   1.953 -0.0362 -0.1846 -3.5350
 2457TIP3    H228931   3.296   1.228   1.952  0.0957 -0.2768 -0.5298
 2458TIP3   OH228932   0.260   0.689   7.287 -0.1985  0.4131 -0.1899
 2458TIP3    H128933   0.261   0.624   7.357 -0.9525 -0.6061 -1.0995
 2458TIP3    H228934   0.229   0.642   7.210  0.6631  1.4914 -1.2448
 2459TIP3   OH228935   1.188   6.514   8.052  0.0247 -0.3959  0.1015
 2459TIP3    H128936   1.201   6.563   8.132 -2.5960  2.1997 -0.8615
 2459TIP3    H228937   1.094   6.520   8.035  0.3168 -1.6813 -2.6347
 2460TIP3   OH228938   3.528   0.698   0.492 -0.0351  0.3526  0.5937
 2460TIP3    H128939   3.480   0.774   0.461 -0.0364 -0.1032 -0.5575
 2460TIP3    H228940   3.606   0.694   0.437  0.7101  0.3620  1.6206
 2461TIP3   OH228941   2.316   1.814   2.357  0.1728 -0.1298 -0.0674
 2461TIP3    H128942   2.264   1.856   2.288 -0.5524  0.3595  0.7731
 2461TIP3    H228943   2.252   1.766   2.409  0.6546 -0.0454  0.6039
 2462TIP3   OH228944   0.675   3.339   7.723 -0.4539  0.5091  0.3698
 2462TIP3    H128945   0.653   3.255   7.682 -2.1114  0.5649  1.0830
 2462TIP3    H228946   0.638   3.404   7.664  1.1488  0.7939 -0.3738
 2463TIP3   OH228947   1.133   2.719   7.576  0.2810  0.1179 -0.1498
 2463TIP3    H128948   1.104   2.686   7.662 -0.4882 -1.8339 -1.0950
 2463TIP3    H228949   1.191   2.651   7.543  1.4262  1.3613 -0.7502
 2464TIP3   OH228950   6.357   5.248   2.841 -0.0283  0.0968 -0.3090
 2464TIP3    H128951   6.283   5.245   2.901  0.1893  1.1095  0.0239
 2464TIP3    H228952   6.409   5.171   2.863 -1.2052 -0.8873 -0.8614
 2465TIP3   OH228953   2.354   2.327   0.563  0.7201  0.1520 -0.1925
 2465TIP3    H128954   2.355   2.374   0.646  0.7940  0.3740 -0.3193
 2465TIP3    H228955   2.431   2.270   0.568 -0.3290 -1.2631  0.7029
 2466TIP3   OH228956   3.199   1.033   0.707 -0.1439 -0.3793  0.0829
 2466TIP3    H128957   3.294   1.045   0.707 -0.1901  0.0953  1.3997
 2466TIP3    H228958   3.174   1.040   0.799 -1.6558  1.0769 -0.4096
 2467TIP3   OH228959   1.456   2.919   8.011 -0.8483 -0.4996  0.1464
 2467TIP3    H128960   1.411   2.990   7.965 -1.2034  0.2213  1.5491
 2467TIP3    H228961   1.488   2.862   7.941 -1.3725  0.5375 -0.9839
 2468TIP3   OH228962   1.238   5.370   8.301 -0.1428  0.0531  0.0187
 2468TIP3    H128963   1.224   5.279   8.328  0.2037  0.2643  0.9379
 2468TIP3    H228964   1.239   5.366   8.206 -0.9276 -0.7893  0.0214
 2469TIP3   OH228965   0.800   5.035   6.628  0.2619  0.1836 -0.1367
 2469TIP3    H128966   0.747   5.046   6.707 -3.1973 -0.6536 -2.1086
 2469TIP3    H228967   0.802   4.941   6.613  0.5021  0.3524 -1.2671
 2470TIP3   OH228968   5.538   0.419   1.643 -0.3719 -0.4973 -0.0924
 2470TIP3    H128969   5.448   0.386   1.648 -0.2630 -1.0468 -1.2035
 2470TIP3    H228970   5.528   0.514   1.633 -0.7865 -0.4420  0.7970
 2471TIP3   OH228971   1.773   5.835   0.546 -0.7420 -0.1203  0.6701
 2471TIP3    H128972   1.721   5.871   0.618 -1.5767  0.2733 -0.1092
 2471TIP3    H228973   1.808   5.912   0.502 -0.1590 -0.3639  0.6931
 2472TIP3   OH228974   4.588   5.671   7.777  0.1836  0.1064 -0.2414
 2472TIP3    H128975   4.667   5.618   7.772  1.8074  2.0473  2.3618
 2472TIP3    H228976   4.610   5.751   7.727 -0.6824  0.0822 -0.6771
 2473TIP3   OH228977   1.583   3.717   0.910  0.0258 -0.3265 -0.1332
 2473TIP3    H128978   1.577   3.655   0.983 -0.3357 -0.7230 -0.4886
 2473TIP3    H228979   1.624   3.795   0.947  0.1979 -0.6654  0.3982
 2474TIP3   OH228980   2.206   0.570   1.051  0.4311  0.1199  0.3407
 2474TIP3    H128981   2.151   0.547   0.976  3.1074 -0.5706 -1.5567
 2474TIP3    H228982   2.260   0.643   1.021 -0.6701  2.1084  2.8061
 2475TIP3   OH228983   2.170   5.961   8.040  0.0853  0.6573  0.5697
 2475TIP3    H128984   2.255   5.932   8.007 -0.2831 -1.3387  1.2463
 2475TIP3    H228985   2.157   5.912   8.121 -1.7097  0.9159  0.4974
 2476TIP3   OH228986   1.081   0.151   7.136 -0.0147  0.0155  0.0809
 2476TIP3    H128987   0.994   0.142   7.173 -0.7613 -1.2259 -1.8131
 2476TIP3    H228988   1.108   0.061   7.117  0.6529  0.5239 -1.5421
 2477TIP3   OH228989   2.896   3.817   0.928 -0.5121 -0.0066  0.0237
 2477TIP3    H128990   2.929   3.853   1.010 -1.1518  0.4508  0.0886
 2477TIP3    H228991   2.814   3.865   0.912  0.1317  0.6468 -1.4177
 2478TIP3   OH228992   2.218   5.120   0.457 -0.0905 -0.1315  0.0666
 2478TIP3    H128993   2.301   5.087   0.490  0.6955  0.9995 -0.6974
 2478TIP3    H228994   2.211   5.083   0.369 -0.0797  0.2597 -0.1039
 2479TIP3   OH228995   6.832   1.714   0.487 -0.0077 -0.2951  0.1069
 2479TIP3    H128996   6.761   1.777   0.494 -0.3232 -0.5281 -0.8360
 2479TIP3    H228997   6.857   1.715   0.394 -0.4888 -2.0292 -0.0939
 2480TIP3   OH228998   1.551   5.182   0.626  0.2399 -0.4445 -0.1250
 2480TIP3    H128999   1.463   5.218   0.640  1.2951  2.1644  0.3081
 2480TIP3    H229000   1.594   5.247   0.570  2.8385 -0.1121  2.1030
 2481TIP3   OH229001   2.822   3.836   0.302 -0.0678 -0.5361  0.0075
 2481TIP3    H129002   2.858   3.874   0.383  0.1346  0.3859 -0.4937
 2481TIP3    H229003   2.897   3.832   0.242 -0.9361  2.7979 -1.5656
 2482TIP3   OH229004   2.380   2.138   7.471 -0.2283  0.2923 -0.1036
 2482TIP3    H129005   2.402   2.058   7.517  0.3193  0.6104  0.1872
 2482TIP3    H229006   2.305   2.114   7.416 -0.4469 -0.2585  0.4282
 2483TIP3   OH229007   6.546   6.717   0.888 -0.6314  0.1655 -0.3702
 2483TIP3    H129008   6.640   6.702   0.884 -0.6324  0.1184 -0.2348
 2483TIP3    H229009   6.524   6.761   0.806 -0.4811  0.2375 -0.3710
 2484TIP3   OH229010   3.271   0.839   8.327 -0.3692 -0.1510  0.4227
 2484TIP3    H129011   3.297   0.930   8.312 -0.3416 -0.3792 -1.0178
 2484TIP3    H229012   3.259   0.802   8.240 -0.6400 -1.4665  0.9859
 2485TIP3   OH229013   6.369   0.047   1.096 -0.8406  0.2418 -0.1795
 2485TIP3    H129014   6.283   0.034   1.057 -1.1317  1.6496 -0.0605
 2485TIP3    H229015   6.388   0.140   1.081  0.8617 -0.1400 -0.6176
 2486TIP3   OH229016   0.376   0.514   7.525 -0.2385  0.4994  0.1019
 2486TIP3    H129017   0.371   0.605   7.554 -0.3766  0.6455 -0.3707
 2486TIP3    H229018   0.285   0.484   7.523 -0.1648  0.2368  0.6097
 2487TIP3   OH229019   0.980   2.674   1.139  0.3489 -0.1324  0.0149
 2487TIP3    H129020   1.045   2.742   1.120 -0.0148  0.0714 -0.5051
 2487TIP3    H229021   0.905   2.722   1.175 -0.3460 -0.1221 -1.3928
 2488TIP3   OH229022   2.567   0.228   2.341  0.3143  0.2082  0.4529
 2488TIP3    H129023   2.620   0.297   2.381  1.2034  1.0122 -1.9275
 2488TIP3    H229024   2.502   0.275   2.289 -1.0345 -0.7852  1.1792
 2489TIP3   OH229025   2.004   3.711   2.333  0.2560 -0.2691 -0.0981
 2489TIP3    H129026   2.017   3.764   2.411 -0.4015 -0.8972  0.4501
 2489TIP3    H229027   2.092   3.699   2.297  0.4642  0.8111  0.0040
 2490TIP3   OH229028   0.532   6.450   2.763  0.1379  0.6831 -0.3068
 2490TIP3    H129029   0.504   6.407   2.682 -0.7314 -0.4027  0.5333
 2490TIP3    H229030   0.518   6.383   2.831 -0.0280  1.8760  0.8603
 2491TIP3   OH229031   6.639   1.452   1.715 -0.2388 -0.6830 -0.0831
 2491TIP3    H129032   6.596   1.493   1.640 -3.2001 -2.2176  0.6385
 2491TIP3    H229033   6.698   1.387   1.676 -0.3318 -0.1830 -1.0780
 2492TIP3   OH229034   0.996   0.536   0.228  0.2251 -0.3291  0.3341
 2492TIP3    H129035   1.080   0.557   0.188 -0.1226 -2.3319 -1.6023
 2492TIP3    H229036   1.018   0.487   0.308  0.8774  0.4547  0.6517
 2493TIP3   OH229037   3.448   2.650   1.517  0.5148  0.0974 -0.0939
 2493TIP3    H129038   3.491   2.586   1.459  1.2249  1.0576 -0.6633
 2493TIP3    H229039   3.493   2.732   1.498  1.0427  0.3833  2.1162
 2494TIP3   OH229040   3.030   2.353   7.943 -0.5915  0.1932  0.5721
 2494TIP3    H129041   2.959   2.343   8.007  0.5340 -0.6749  1.7412
 2494TIP3    H229042   3.018   2.279   7.883  0.1400 -0.8138  1.6238
 2495TIP3   OH229043   1.617   2.140   2.231  0.5304  0.0269  0.0026
 2495TIP3    H129044   1.667   2.115   2.154  0.7187 -2.8914  0.9522
 2495TIP3    H229045   1.531   2.100   2.218 -0.1503  1.2973  0.3847
 2496TIP3   OH229046   6.269   0.735   0.897 -0.2092  0.0680 -1.2846
 2496TIP3    H129047   6.185   0.705   0.861  0.6109 -0.5271 -2.7762
 2496TIP3    H229048   6.294   0.809   0.843  0.4856 -0.0920 -1.1880
 2497TIP3   OH229049   0.674   1.318   8.257 -0.0036 -0.4581  0.1169
 2497TIP3    H129050   0.697   1.247   8.317 -0.4366 -0.1283  0.6784
 2497TIP3    H229051   0.579   1.311   8.247 -0.2554  0.9309  1.3319
 2498TIP3   OH229052   6.517   1.104   6.589  0.7688  0.0316 -0.7020
 2498TIP3    H129053   6.602   1.114   6.547  1.3482  3.5845  0.9440
 2498TIP3    H229054   6.537   1.092   6.681 -0.5135 -0.1901 -0.4403
 2499TIP3   OH229055   5.172   3.780   0.545 -0.1502 -0.0959  0.1927
 2499TIP3    H129056   5.127   3.804   0.464  2.2812 -0.4643 -1.3703
 2499TIP3    H229057   5.251   3.833   0.546  0.3810 -0.8306  1.8358
 2500TIP3   OH229058   4.788   5.568   2.613  0.1119  0.3493 -0.2653
 2500TIP3    H129059   4.779   5.483   2.570  0.3890  0.4835 -0.6013
 2500TIP3    H229060   4.882   5.574   2.634  0.0377  0.4366  0.0415
 2501TIP3   OH229061   3.001   6.499   0.174 -0.0585 -0.7763  0.2254
 2501TIP3    H129062   2.908   6.497   0.154 -0.3463  3.7197  0.1889
 2501TIP3    H229063   3.042   6.533   0.095  1.5865 -1.9264  0.5193
 2502TIP3   OH229064   1.437   3.624   2.637  0.3983 -0.4008  0.0633
 2502TIP3    H129065   1.517   3.667   2.606 -0.9054  0.3775 -2.5371
 2502TIP3    H229066   1.370   3.648   2.572 -1.2969 -3.3435  0.5279
 2503TIP3   OH229067   0.670   5.501   2.541  1.2693  0.5221  0.2286
 2503TIP3    H129068   0.581   5.493   2.578  1.6666 -0.1153  1.0765
 2503TIP3    H229069   0.670   5.441   2.467  1.4236 -0.5458  1.0837
 2504TIP3   OH229070   4.633   4.177   7.538  0.1442  0.3728  0.3185
 2504TIP3    H129071   4.537   4.179   7.548  0.2311 -0.1474  1.3732
 2504TIP3    H229072   4.647   4.122   7.460 -0.3836 -0.7224  0.9763
 2505TIP3   OH229073   1.305   0.628   8.570 -0.1629 -0.0252 -0.3645
 2505TIP3    H129074   1.222   0.662   8.536  0.0963  0.3412 -0.6387
 2505TIP3    H229075   1.360   0.615   8.493  0.0188 -0.3156 -0.1878
 2506TIP3   OH229076   5.686   1.902   6.600  0.5426  0.6140 -0.1345
 2506TIP3    H129077   5.727   1.921   6.516  2.6171 -0.0544  0.6749
 2506TIP3    H229078   5.751   1.930   6.665 -0.5823  0.1372  1.2314
 2507TIP3   OH229079   5.003   4.577   1.640 -0.4226 -0.1697  0.1826
 2507TIP3    H129080   4.984   4.507   1.578 -2.4530  0.3507  0.1573
 2507TIP3    H229081   4.946   4.559   1.715  1.3898 -0.3267  1.6012
 2508TIP3   OH229082   2.874   0.753   0.981  0.2233  0.2110 -0.3812
 2508TIP3    H129083   2.884   0.828   0.923 -0.1718  0.1733 -0.5056
 2508TIP3    H229084   2.825   0.787   1.056 -0.1243  0.0377 -0.5261
 2509TIP3   OH229085   1.330   0.678   7.725  0.0260 -0.0711  0.6054
 2509TIP3    H129086   1.337   0.606   7.663 -1.8627 -0.4460  0.7630
 2509TIP3    H229087   1.237   0.701   7.725  0.5695  2.4466  0.5022
 2510TIP3   OH229088   0.014   2.447   8.353  0.0249 -0.0936 -0.1846
 2510TIP3    H129089  -0.059   2.397   8.315 -0.9328  1.9679 -1.2185
 2510TIP3    H229090   0.070   2.467   8.278  3.4930 -4.1810  0.9225
 2511TIP3   OH229091   6.720   3.336   1.104 -0.2146  0.3913  0.0698
 2511TIP3    H129092   6.806   3.342   1.145 -0.0380  0.1411 -0.2582
 2511TIP3    H229093   6.697   3.427   1.083 -0.5364  0.5840  1.1714
 2512TIP3   OH229094   1.066   5.358   3.005  0.3307 -0.2502 -0.1379
 2512TIP3    H129095   1.084   5.373   3.098  1.4017  2.1038 -0.6437
 2512TIP3    H229096   1.034   5.268   3.001  3.1039 -1.5123  2.1267
 2513TIP3   OH229097   0.692   1.667   7.580  0.4178  0.3754 -0.1022
 2513TIP3    H129098   0.707   1.599   7.646  1.5339  1.4378  0.7789
 2513TIP3    H229099   0.666   1.618   7.502 -1.2307 -0.8949  1.1674
 2514TIP3   OH229100   5.765   6.305   1.712  0.6453 -0.0271 -0.0537
 2514TIP3    H129101   5.801   6.241   1.773 -1.9109 -0.6527  0.9133
 2514TIP3    H229102   5.694   6.259   1.668  0.8635  1.1720 -1.7618
 2515TIP3   OH229103   0.342   1.194   0.191 -0.6824 -0.3690  0.1170
 2515TIP3    H129104   0.395   1.119   0.163  0.3637 -0.0594  1.1676
 2515TIP3    H229105   0.260   1.155   0.222  0.5307 -1.3597  2.4147
 2516TIP3   OH229106   2.129   2.474   0.472 -0.9068  0.0538  0.0215
 2516TIP3    H129107   2.034   2.469   0.458 -0.5928 -1.8800 -2.0027
 2516TIP3    H229108   2.151   2.390   0.513 -0.0524  0.5415  0.5887
 2517TIP3   OH229109   6.136   4.467   1.207  0.0991  0.0249  0.3108
 2517TIP3    H129110   6.045   4.454   1.181  0.7333  0.2862 -2.4409
 2517TIP3    H229111   6.182   4.393   1.167  1.1112 -0.1070  1.6638
 2518TIP3   OH229112   6.204   3.772   0.410  0.0844  0.2795  0.8408
 2518TIP3    H129113   6.228   3.818   0.491 -0.6722  1.1963  0.5606
 2518TIP3    H229114   6.117   3.737   0.428 -0.0015  0.3169  0.4948
 2519TIP3   OH229115   4.221   3.002   1.876 -0.0611 -0.2634 -0.7592
 2519TIP3    H129116   4.307   3.013   1.835 -0.5367 -0.3045 -1.8007
 2519TIP3    H229117   4.158   3.021   1.806 -0.9093  0.4380  0.1586
 2520TIP3   OH229118   6.008   4.995   0.741 -0.1869 -0.7054  0.3580
 2520TIP3    H129119   6.023   4.923   0.802  0.6966 -1.2796 -0.5159
 2520TIP3    H229120   6.094   5.034   0.728 -0.4122 -0.4071 -0.3069
 2521TIP3   OH229121   4.596   6.347   8.049 -0.4524 -0.5188  0.8785
 2521TIP3    H129122   4.626   6.257   8.034  1.9564  0.3266  0.0744
 2521TIP3    H229123   4.671   6.390   8.090 -0.9732  1.5113 -0.1907
 2522TIP3   OH229124   1.498   6.280   2.017 -0.7972  0.2480 -0.4876
 2522TIP3    H129125   1.556   6.351   1.989 -0.8866  0.3456 -0.4289
 2522TIP3    H229126   1.547   6.200   2.000 -0.5548  0.3391 -0.2239
 2523TIP3   OH229127   5.613   1.593   2.169 -0.4388  0.3849  0.7273
 2523TIP3    H129128   5.518   1.603   2.181 -0.7396  0.0068 -0.9732
 2523TIP3    H229129   5.627   1.498   2.169  0.1687  0.4487  2.2965
 2524TIP3   OH229130   3.982   2.156   8.370  0.2269 -0.4638 -0.6195
 2524TIP3    H129131   4.050   2.091   8.385  0.7976 -0.0969 -1.5393
 2524TIP3    H229132   4.023   2.221   8.312 -0.2621  0.8288  0.4387
 2525TIP3   OH229133   2.095   3.609   2.608 -0.0042 -0.7056 -0.1313
 2525TIP3    H129134   2.025   3.573   2.554 -1.0507 -0.5126  1.0487
 2525TIP3    H229135   2.107   3.699   2.576  1.2811 -1.4336 -1.8066
 2526TIP3   OH229136   6.840   1.167   6.744  0.2470  0.3693  0.3450
 2526TIP3    H129137   6.843   1.260   6.763 -1.7694  0.5476  0.0127
 2526TIP3    H229138   6.804   1.162   6.655  0.7741 -0.7171  0.1716
 2527TIP3   OH229139   3.720   2.655   7.217  0.0576 -0.1941  0.0462
 2527TIP3    H129140   3.711   2.566   7.183  0.0667  0.0692 -0.6674
 2527TIP3    H229141   3.809   2.681   7.194  0.3451 -0.2947  0.9934
 2528TIP3   OH229142   5.622   5.933   0.974  0.0343 -0.6271 -0.2367
 2528TIP3    H129143   5.685   5.943   1.045  1.0976 -0.2699 -1.2060
 2528TIP3    H229144   5.602   5.839   0.973  0.4827 -0.7330  0.1366
 2529TIP3   OH229145   4.106   3.835   2.325 -0.5618  0.2041  0.5344
 2529TIP3    H129146   4.117   3.740   2.322 -1.8360 -0.0609  2.2876
 2529TIP3    H229147   4.115   3.857   2.418  1.1766  2.0380  0.0136
 2530TIP3   OH229148   4.041   4.275   0.541 -0.3544  0.3612  0.0132
 2530TIP3    H129149   4.111   4.210   0.531  0.6914  1.4846 -0.2344
 2530TIP3    H229150   3.960   4.225   0.526  0.2590 -1.2692  1.7057
 2531TIP3   OH229151   4.896   4.677   1.983  0.2903  0.1699  0.5068
 2531TIP3    H129152   4.963   4.609   1.995 -0.1086 -0.2498  0.4001
 2531TIP3    H229153   4.837   4.641   1.917  0.3695  0.8546  0.0535
 2532TIP3   OH229154   3.674   2.696   8.526  0.1905 -0.3520  0.1532
 2532TIP3    H129155   3.733   2.718   8.599 -0.9801 -0.3909  1.1379
 2532TIP3    H229156   3.712   2.741   8.451 -0.4959  2.7067  1.4869
 2533TIP3   OH229157   6.913   5.953   2.711  0.3970 -0.1369 -0.2315
 2533TIP3    H129158   6.852   5.998   2.768 -1.3924 -0.3121 -1.8777
 2533TIP3    H229159   6.935   5.872   2.757  2.0160  1.3777  1.8194
 2534TIP3   OH229160   5.599   2.654   1.112 -0.6323 -0.2614 -0.2278
 2534TIP3    H129161   5.547   2.704   1.049 -0.3155 -0.4296 -0.6295
 2534TIP3    H229162   5.681   2.636   1.066 -0.2120  0.0053  0.4015
 2535TIP3   OH229163   1.446   6.414   2.693  0.0271  0.1453 -0.7887
 2535TIP3    H129164   1.448   6.446   2.603  0.0222  1.5513 -0.3057
 2535TIP3    H229165   1.410   6.325   2.686  1.5033 -0.3950 -2.3417
 2536TIP3   OH229166   6.815   1.832   7.670  0.1744 -0.3048  0.0924
 2536TIP3    H129167   6.749   1.887   7.711 -0.7092 -0.2980 -1.2809
 2536TIP3    H229168   6.892   1.841   7.726 -0.7194  0.3456  1.2597
 2537TIP3   OH229169   3.677   6.549   2.591 -0.0203  0.5000 -0.1204
 2537TIP3    H129170   3.600   6.499   2.562  1.6302 -1.9817 -0.6050
 2537TIP3    H229171   3.738   6.543   2.517  0.9352  1.7218  0.5365
 2538TIP3   OH229172   0.390   4.242   1.673 -0.7505 -0.1867  0.6049
 2538TIP3    H129173   0.360   4.186   1.744 -1.9890 -0.6187 -0.2346
 2538TIP3    H229174   0.471   4.281   1.706 -0.1874 -1.9669  1.4570
 2539TIP3   OH229175   5.831   2.899   6.622 -0.4958  0.2291 -0.0103
 2539TIP3    H129176   5.788   2.877   6.704 -0.0843 -0.2899  0.0754
 2539TIP3    H229177   5.773   2.865   6.554 -2.6540  3.7329 -0.1396
 2540TIP3   OH229178   1.549   2.369   7.207 -0.2441  0.2722 -0.2370
 2540TIP3    H129179   1.621   2.307   7.217  0.4351  1.0793 -0.0511
 2540TIP3    H229180   1.509   2.346   7.123  1.3300  0.9168 -1.2188
 2541TIP3   OH229181   0.122   3.104   2.625  0.1552 -0.1439 -0.3866
 2541TIP3    H129182   0.046   3.112   2.683  0.0897 -0.2632 -0.4561
 2541TIP3    H229183   0.107   3.168   2.556  0.9945  1.1438  0.5646
 2542TIP3   OH229184   5.058   0.550   0.853 -0.0636  0.3787 -0.1243
 2542TIP3    H129185   5.106   0.539   0.935  0.0056  0.9775 -0.0763
 2542TIP3    H229186   5.109   0.615   0.804 -1.0452  1.3780  0.1194
 2543TIP3   OH229187   2.725   6.669   0.622  0.5335 -0.2185  0.1854
 2543TIP3    H129188   2.749   6.577   0.635  0.1318 -0.4248 -0.5143
 2543TIP3    H229189   2.634   6.674   0.651 -0.0303 -0.4486 -1.4392
 2544TIP3   OH229190   4.713   5.429   1.965 -0.5404 -0.0544 -0.0331
 2544TIP3    H129191   4.643   5.395   1.909 -0.2704 -0.7560  0.0447
 2544TIP3    H229192   4.715   5.369   2.040  1.5521 -1.3685 -1.0496
 2545TIP3   OH229193   6.299   1.075   2.516 -0.6589 -0.3369 -0.4916
 2545TIP3    H129194   6.309   1.163   2.481  2.5694 -0.2690  0.3432
 2545TIP3    H229195   6.276   1.022   2.440  0.1374  0.7920 -1.5599
 2546TIP3   OH229196   1.673   6.724   0.616 -0.1310  0.8806  0.4920
 2546TIP3    H129197   1.600   6.716   0.677 -0.5652  1.9565  0.1338
 2546TIP3    H229198   1.751   6.719   0.672 -0.4792  0.2133  0.9336
 2547TIP3   OH229199   6.061   5.694   1.151  0.3527 -0.7270 -0.0613
 2547TIP3    H129200   6.079   5.768   1.092 -1.1349  0.2295  0.6324
 2547TIP3    H229201   6.066   5.732   1.239  0.2481 -1.6111  0.3380
 2548TIP3   OH229202   2.359   4.394   1.709  0.2812 -0.5984 -0.2853
 2548TIP3    H129203   2.394   4.467   1.761  0.5841  1.0819 -2.6842
 2548TIP3    H229204   2.286   4.361   1.761  1.7668 -0.3781  2.1160
 2549TIP3   OH229205   3.832   1.242   0.657  0.0391 -0.2120 -0.8240
 2549TIP3    H129206   3.758   1.273   0.708  0.8937 -0.6523  0.7352
 2549TIP3    H229207   3.807   1.154   0.630  1.1678 -1.6522  2.3855
 2550TIP3   OH229208   4.534   3.303   1.932  0.1677  0.4605  0.4730
 2550TIP3    H129209   4.500   3.324   2.019  0.8181 -0.4758  0.9748
 2550TIP3    H229210   4.593   3.229   1.947 -0.0361  0.0130 -0.8278
 2551TIP3   OH229211   5.285   1.320   2.588  0.4903 -0.4645 -0.5422
 2551TIP3    H129212   5.202   1.352   2.552 -0.8574 -1.6864  1.3063
 2551TIP3    H229213   5.269   1.227   2.606  2.3397 -0.7644 -0.2943
 2552TIP3   OH229214   5.364   4.727   1.985 -0.0954 -0.0505  0.3447
 2552TIP3    H129215   5.372   4.814   1.946  0.5360 -0.1063  0.3344
 2552TIP3    H229216   5.375   4.743   2.079 -2.9527  0.2711  0.7173
 2553TIP3   OH229217   3.452   1.282   2.428  0.0039  0.1203  0.5861
 2553TIP3    H129218   3.382   1.344   2.450 -0.6793 -0.6907  0.7399
 2553TIP3    H229219   3.500   1.271   2.510  0.8666  1.3386  0.2743
 2554TIP3   OH229220   2.682   5.415   2.909 -0.0071  0.1032 -0.0361
 2554TIP3    H129221   2.673   5.491   2.852  0.5935 -0.8307 -1.4293
 2554TIP3    H229222   2.772   5.385   2.896  0.1391 -0.1677  1.3897
 2555TIP3   OH229223   3.178   0.938   2.372  0.0155 -0.1119  0.0961
 2555TIP3    H129224   3.176   0.866   2.309  0.4609 -1.9312  2.0808
 2555TIP3    H229225   3.108   0.918   2.434  0.0480  1.2674  0.6206
 2556TIP3   OH229226   0.695   0.093   7.506 -0.0982  0.3821 -0.1703
 2556TIP3    H129227   0.723   0.174   7.548 -0.4889  0.4957 -0.1183
 2556TIP3    H229228   0.735   0.024   7.558  1.3385  0.5511 -1.0066
 2557TIP3   OH229229   0.064   5.529   7.937  0.0883  0.2218 -0.4807
 2557TIP3    H129230   0.088   5.517   8.028 -0.7377 -2.0160 -0.4891
 2557TIP3    H229231   0.100   5.614   7.913  0.7736  0.6149  1.7630
 2558TIP3   OH229232   3.731   2.384   7.118  0.1373  0.3402 -0.4476
 2558TIP3    H129233   3.796   2.366   7.050 -1.5390  0.4521 -2.2041
 2558TIP3    H229234   3.648   2.358   7.078 -1.7015  5.2813 -0.6161
 2559TIP3   OH229235   0.497   1.664   1.891  0.2676 -0.0552 -0.0461
 2559TIP3    H129236   0.408   1.694   1.877  0.3526 -0.0670 -0.6433
 2559TIP3    H229237   0.515   1.682   1.984  0.1740  1.3177 -0.2874
 2560TIP3   OH229238   2.487   4.865   1.716 -0.3383  0.3959 -0.0567
 2560TIP3    H129239   2.406   4.828   1.751  1.0284 -0.6966  2.1793
 2560TIP3    H229240   2.521   4.798   1.657 -0.4926  0.3862 -0.1360
 2561TIP3   OH229241   0.544   1.906   8.092  0.5428  0.0975 -0.7119
 2561TIP3    H129242   0.605   1.833   8.081  2.2413  1.1724  0.9146
 2561TIP3    H229243   0.509   1.895   8.180 -1.2448 -0.1633 -1.4098
 2562TIP3   OH229244   6.651   0.718   8.078  0.1520  0.0507  0.2615
 2562TIP3    H129245   6.662   0.762   7.994  2.6489 -1.3246 -0.2223
 2562TIP3    H229246   6.610   0.634   8.057 -0.4238  0.2294  0.6211
 2563TIP3   OH229247   4.771   4.488   0.873  0.4460  0.6196  0.0104
 2563TIP3    H129248   4.747   4.547   0.945  0.1333 -0.3494  0.7325
 2563TIP3    H229249   4.858   4.517   0.847  2.2108 -1.1910  3.2426
 2564TIP3   OH229250   2.843   6.242   7.722 -0.1404 -0.4502 -0.1162
 2564TIP3    H129251   2.937   6.239   7.708 -0.0619 -1.6972  0.5286
 2564TIP3    H229252   2.813   6.152   7.709 -0.7796 -0.7127  2.5398
 2565TIP3   OH229253   0.372   6.878   2.117 -0.2847 -0.6568  0.2687
 2565TIP3    H129254   0.427   6.817   2.068  0.4626  0.2213 -0.0081
 2565TIP3    H229255   0.419   6.961   2.114 -0.8106 -0.2978  1.4741
 2566TIP3   OH229256   1.493   1.548   1.644  0.2584  0.4016  0.0449
 2566TIP3    H129257   1.469   1.497   1.566  1.1395  2.3857 -1.6175
 2566TIP3    H229258   1.426   1.616   1.650  0.9753  1.1195  0.1407
 2567TIP3   OH229259   4.966   1.403   7.693 -0.3782 -0.3571 -0.8242
 2567TIP3    H129260   5.051   1.415   7.651  0.8948 -0.5338  1.5291
 2567TIP3    H229261   4.946   1.488   7.731 -0.6783 -0.6226 -0.3832
 2568TIP3   OH229262   6.091   0.846   1.067 -0.2049 -0.4931 -0.6758
 2568TIP3    H129263   6.037   0.794   1.008 -0.4934  0.0457 -0.8984
 2568TIP3    H229264   6.180   0.813   1.056 -0.4043 -1.0098 -0.7289
 2569TIP3   OH229265   3.514   5.671   0.154 -0.0695  0.2437 -0.9688
 2569TIP3    H129266   3.583   5.688   0.218 -0.7996 -2.0281  0.5205
 2569TIP3    H229267   3.457   5.747   0.160  1.0331  1.0643 -0.5234
 2570TIP3   OH229268   2.974   4.576   7.978 -0.2144 -0.3070 -0.0826
 2570TIP3    H129269   2.908   4.541   8.038  0.7200 -0.6289  0.7867
 2570TIP3    H229270   3.055   4.577   8.030  0.6162 -0.6071 -1.3415
 2571TIP3   OH229271   5.271   6.873   2.034 -0.3246 -0.1768  0.2935
 2571TIP3    H129272   5.266   6.922   2.116 -2.6220  0.6047 -0.2176
 2571TIP3    H229273   5.271   6.941   1.966 -4.5135 -0.6773 -0.4729
 2572TIP3   OH229274   1.576   2.437   0.492  0.1208  0.1419  0.3965
 2572TIP3    H129275   1.531   2.354   0.476  1.2499 -0.7380  1.5678
 2572TIP3    H229276   1.516   2.504   0.459 -1.6008 -1.0339  0.9985
 2573TIP3   OH229277   5.507   3.661   7.607  0.1245 -0.4322 -0.1471
 2573TIP3    H129278   5.447   3.695   7.541  0.4068 -0.3415 -0.3621
 2573TIP3    H229279   5.544   3.740   7.648  1.7122 -0.4122 -1.4858
 2574TIP3   OH229280   6.513   6.286   0.556 -0.0397  0.1908 -0.2483
 2574TIP3    H129281   6.482   6.374   0.576 -0.0979 -0.1495  1.2488
 2574TIP3    H229282   6.435   6.240   0.525 -0.3311  0.2670  0.3575
 2575TIP3   OH229283   0.191   2.968   1.250  0.2638 -0.2698  0.3993
 2575TIP3    H129284   0.191   2.879   1.283 -0.8071 -0.1961  0.6058
 2575TIP3    H229285   0.142   3.019   1.315 -0.6864  0.1251 -0.6002
 2576TIP3   OH229286   2.623   2.623   2.073  0.2274 -0.0038 -0.1464
 2576TIP3    H129287   2.566   2.569   2.127  1.4601 -1.5923 -0.3520
 2576TIP3    H229288   2.574   2.636   1.992 -1.0264  1.1636  0.7486
 2577TIP3   OH229289   1.024   6.157   1.680  0.3644  0.7338 -0.2481
 2577TIP3    H129290   0.935   6.173   1.650 -0.3643  0.5996  1.6915
 2577TIP3    H229291   1.015   6.142   1.775  2.1477 -1.5348 -0.3485
 2578TIP3   OH229292   4.224   6.078   8.152  0.4211 -0.7100 -0.2617
 2578TIP3    H129293   4.250   6.023   8.079 -0.1453  1.1639 -1.9553
 2578TIP3    H229294   4.279   6.156   8.145 -1.2288  0.5253 -0.1507
 2579TIP3   OH229295   5.417   0.004   6.910  0.0473  0.0715  0.6054
 2579TIP3    H129296   5.322  -0.011   6.919 -0.1616  0.5940 -0.5782
 2579TIP3    H229297   5.454  -0.031   6.991 -1.2133  0.3473  1.3292
 2580TIP3   OH229298   1.118   2.839   7.996  0.3170  0.3812  0.1368
 2580TIP3    H129299   1.059   2.858   7.924 -0.0581  0.6015  0.4974
 2580TIP3    H229300   1.168   2.763   7.967  0.4721  0.7239 -0.5301
 2581TIP3   OH229301   3.894   5.681   6.963 -0.1033 -0.0285  0.1947
 2581TIP3    H129302   3.813   5.727   6.943  0.5034  1.2375  0.5254
 2581TIP3    H229303   3.871   5.621   7.034 -1.8507 -3.2275 -2.7901
 2582TIP3   OH229304   1.645   6.364   0.930  0.7572 -0.1853  0.1132
 2582TIP3    H129305   1.643   6.448   0.976 -0.9237  0.1147 -0.4575
 2582TIP3    H229306   1.553   6.342   0.916  1.1829 -1.8197 -0.3230
 2583TIP3   OH229307   5.463   3.915   0.832  0.2282 -0.3889  0.5868
 2583TIP3    H129308   5.496   3.827   0.852  0.8711  0.2895  2.7265
 2583TIP3    H229309   5.409   3.938   0.907 -0.9956  0.5684 -0.5408
 2584TIP3   OH229310   1.798   0.242   0.417  0.5398  0.5410  0.5470
 2584TIP3    H129311   1.755   0.293   0.485  0.5977 -0.7188  1.5630
 2584TIP3    H229312   1.726   0.209   0.363  0.0733 -1.8696  2.4593
 2585TIP3   OH229313   0.147   3.409   7.386  0.4226  0.1259  0.3618
 2585TIP3    H129314   0.164   3.449   7.471  0.2224 -0.0707  0.4940
 2585TIP3    H229315   0.229   3.366   7.362 -0.3210 -2.2992  1.7883
 2586TIP3   OH229316   3.272   3.408   0.563 -0.0054  0.0058 -0.3157
 2586TIP3    H129317   3.324   3.383   0.487  1.2714 -2.0697  1.1405
 2586TIP3    H229318   3.253   3.501   0.550  1.8087  0.1712 -2.2028
 2587TIP3   OH229319   3.084   2.556   0.007  0.4761 -0.0450  0.1728
 2587TIP3    H129320   3.102   2.570   0.100 -0.4020  0.2076  0.3124
 2587TIP3    H229321   3.156   2.600  -0.039  1.8936 -1.6321  0.7393
 2588TIP3   OH229322   1.552   3.461   2.976  0.3776  0.0693 -0.2203
 2588TIP3    H129323   1.466   3.486   2.943 -0.0952 -3.4540 -2.1896
 2588TIP3    H229324   1.534   3.395   3.044  1.4699 -0.5644 -0.5117
 2589TIP3   OH229325   0.706   4.503   8.478  0.4999 -0.3742 -0.3625
 2589TIP3    H129326   0.783   4.498   8.420  0.6818  0.9770 -0.2773
 2589TIP3    H229327   0.736   4.554   8.553 -0.2391 -0.6020  0.0984
 2590TIP3   OH229328   6.409   5.941   0.395  0.3257 -0.1974  0.7007
 2590TIP3    H129329   6.499   5.946   0.426  0.2690  1.2893  0.7201
 2590TIP3    H229330   6.357   5.977   0.467 -0.0515  0.9571 -0.1225
 2591TIP3   OH229331   3.126   0.859   6.715  0.4202  0.0630 -0.1289
 2591TIP3    H129332   3.040   0.877   6.754  0.3357  0.7910 -0.6354
 2591TIP3    H229333   3.108   0.790   6.651 -0.3228  2.0417 -2.1588
 2592TIP3   OH229334   5.612   2.575   7.981 -0.2861 -0.2733 -0.2170
 2592TIP3    H129335   5.631   2.500   7.925  0.8982  0.2752 -0.5770
 2592TIP3    H229336   5.573   2.537   8.060  1.1022 -1.3591 -0.0268
 2593TIP3   OH229337   2.296   5.754   0.111  0.0229  0.3231 -0.2353
 2593TIP3    H129338   2.209   5.758   0.150  0.0991  1.9501 -0.1756
 2593TIP3    H229339   2.339   5.680   0.156 -1.0458  0.0010  0.2889
 2594TIP3   OH229340   4.706   2.799   1.122 -0.5862  0.4732 -0.5242
 2594TIP3    H129341   4.798   2.813   1.141 -1.0863  0.6170  2.2071
 2594TIP3    H229342   4.705   2.756   1.036  1.9977  0.2098 -0.4972
 2595TIP3   OH229343   3.423   3.545   1.762  0.2236 -0.0071  0.3148
 2595TIP3    H129344   3.498   3.496   1.727 -0.7267 -0.1029 -1.7121
 2595TIP3    H229345   3.463   3.620   1.808  1.5646 -0.3039 -0.3109
 2596TIP3   OH229346   6.822   6.726   0.822 -0.7765  0.5234  0.2016
 2596TIP3    H129347   6.888   6.792   0.842 -1.6023  0.8706  1.9248
 2596TIP3    H229348   6.872   6.646   0.807  0.2052  1.3906 -1.4527
 2597TIP3   OH229349   2.247   0.322   1.327  0.1044 -0.0539  0.3625
 2597TIP3    H129350   2.306   0.366   1.389 -0.5069  0.7752  0.3827
 2597TIP3    H229351   2.187   0.391   1.299  0.4219 -0.3866 -1.2330
 2598TIP3   OH229352   4.882   4.917   7.536 -0.6430  0.0892  0.7068
 2598TIP3    H129353   4.788   4.930   7.548 -0.6293 -0.7785  1.9566
 2598TIP3    H229354   4.921   4.954   7.616 -0.1163 -1.5478  1.2404
 2599TIP3   OH229355   5.416   0.502   6.828  0.2023 -0.2668 -0.5334
 2599TIP3    H129356   5.446   0.450   6.753  0.5496 -0.5137 -0.2255
 2599TIP3    H229357   5.367   0.574   6.788  0.5254 -0.3024 -1.0106
 2600TIP3   OH229358   6.365   3.718   7.887  0.4124 -0.4185 -0.3164
 2600TIP3    H129359   6.279   3.689   7.855 -0.1136 -1.2652  1.7060
 2600TIP3    H229360   6.364   3.813   7.873 -1.5614 -0.1564  1.1279
 2601TIP3   OH229361   3.082   1.379   1.710  0.5875 -0.1127  0.3441
 2601TIP3    H129362   3.086   1.446   1.778  2.7770 -1.4699  1.6872
 2601TIP3    H229363   3.101   1.297   1.756 -1.1866 -1.5781 -1.3713
 2602TIP3   OH229364   4.824   1.576   1.750 -0.5880  0.1223  0.7403
 2602TIP3    H129365   4.884   1.650   1.745 -2.0246  1.2889 -0.4961
 2602TIP3    H229366   4.843   1.525   1.671 -1.1124  0.4194  0.4184
 2603TIP3   OH229367   0.902   4.501   6.725  0.0639 -0.2996  0.6630
 2603TIP3    H129368   0.836   4.436   6.702 -0.4802  0.5713 -0.3830
 2603TIP3    H229369   0.855   4.585   6.720  1.6184  0.5363 -1.9259
 2604TIP3   OH229370   3.513   1.172   1.413 -0.5192  0.4682  0.3526
 2604TIP3    H129371   3.539   1.137   1.328  2.5125 -1.2317  1.7915
 2604TIP3    H229372   3.422   1.142   1.424 -1.0959  0.9730 -2.3163
 2605TIP3   OH229373   5.198   0.557   7.503 -0.4025 -0.5073 -0.0825
 2605TIP3    H129374   5.132   0.624   7.485 -0.9866 -0.9876  0.2210
 2605TIP3    H229375   5.147   0.476   7.514  0.2705 -0.9567 -0.2228
 2606TIP3   OH229376   0.295   4.456   1.352  0.3092 -0.1350  0.0914
 2606TIP3    H129377   0.203   4.472   1.332  0.1598 -2.2923 -1.3456
 2606TIP3    H229378   0.342   4.524   1.305 -0.4557 -0.6745 -1.5255
 2607TIP3   OH229379   2.772   3.895   2.051 -0.0281 -0.0581  0.6536
 2607TIP3    H129380   2.782   3.977   2.100  0.3038 -0.2145  0.8491
 2607TIP3    H229381   2.827   3.907   1.973  2.8840 -1.4168  2.3488
 2608TIP3   OH229382   2.390   4.412   8.500  0.3009 -0.1478 -0.5941
 2608TIP3    H129383   2.447   4.358   8.555  0.7634 -0.3867 -1.3076
 2608TIP3    H229384   2.342   4.467   8.563  0.7936 -0.4450  0.0521
 2609TIP3   OH229385   5.860   5.896   0.543  0.0484  0.2946 -0.0515
 2609TIP3    H129386   5.811   5.952   0.603 -0.3131  0.0836 -0.1475
 2609TIP3    H229387   5.808   5.816   0.537  0.3747  0.0922 -0.2021
 2610TIP3   OH229388   5.754   3.305   0.477 -0.5060 -0.8580  0.3706
 2610TIP3    H129389   5.674   3.292   0.427  0.2220  0.8305 -1.3444
 2610TIP3    H229390   5.811   3.233   0.449 -0.9191 -1.2672  0.5647
 2611TIP3   OH229391   6.541   4.661   7.176 -0.5122  0.2314  0.3811
 2611TIP3    H129392   6.601   4.644   7.249  1.6836 -0.8703 -1.5326
 2611TIP3    H229393   6.583   4.619   7.101 -1.8407  2.6473 -1.8675
 2612TIP3   OH229394   2.337   1.603   7.148  0.0908 -0.7500 -0.4004
 2612TIP3    H129395   2.292   1.526   7.114 -3.4843  0.3418  1.4281
 2612TIP3    H229396   2.381   1.572   7.227 -0.1702 -1.1889 -0.4238
 2613TIP3   OH229397   3.049   4.739   8.442  0.0099 -0.2181  0.2660
 2613TIP3    H129398   2.985   4.792   8.490  2.8831  2.0514  1.9776
 2613TIP3    H229399   3.131   4.789   8.449  1.3915 -1.2342 -4.5273
 2614TIP3   OH229400   2.485   3.055   6.802 -0.3060  0.1787  0.4143
 2614TIP3    H129401   2.577   3.081   6.797 -0.2570 -0.1567 -1.0999
 2614TIP3    H229402   2.446   3.117   6.863  0.5739  1.4741 -0.2787
 2615TIP3   OH229403   2.973   0.090   6.854  0.4310  0.1009 -0.1425
 2615TIP3    H129404   2.878   0.085   6.867  0.4172 -0.3170 -0.3916
 2615TIP3    H229405   2.983   0.149   6.780  0.2678 -1.1554 -1.2073
 2616TIP3   OH229406   6.161   0.802   0.454  0.2587  0.1564 -0.1041
 2616TIP3    H129407   6.092   0.736   0.449 -0.2463  0.5753  1.0544
 2616TIP3    H229408   6.129   0.875   0.401 -0.2723  0.4144  0.5601
 2617TIP3   OH229409   0.269   4.759   1.639  0.2126 -0.2085 -0.4118
 2617TIP3    H129410   0.221   4.790   1.716 -0.0578 -1.4628 -0.0396
 2617TIP3    H229411   0.289   4.667   1.660 -0.2906 -0.7129 -2.0380
 2618TIP3   OH229412   4.671   3.053   0.450  0.2042 -0.7862  0.2282
 2618TIP3    H129413   4.755   3.047   0.404  1.2841 -0.9741  2.1204
 2618TIP3    H229414   4.691   3.099   0.532 -1.2014 -2.1949  1.4354
 2619TIP3   OH229415   3.772   4.186   0.035 -0.1051 -0.2879 -0.2605
 2619TIP3    H129416   3.745   4.263  -0.014  1.3360  0.3294 -0.1222
 2619TIP3    H229417   3.754   4.207   0.126  0.7939  0.1174 -0.1698
 2620TIP3   OH229418   6.284   1.197   7.547 -0.1292  0.3659  0.0375
 2620TIP3    H129419   6.239   1.248   7.479 -1.0362  1.3114  1.3035
 2620TIP3    H229420   6.222   1.127   7.568  0.5478 -0.5026 -0.7310
 2621TIP3   OH229421   1.090   4.782   2.986 -0.2436 -0.2117 -0.2442
 2621TIP3    H129422   1.168   4.794   3.039 -0.0901 -0.7597 -0.3454
 2621TIP3    H229423   1.094   4.691   2.957 -0.8666 -0.2169 -0.3306
 2622TIP3   OH229424   0.896   5.617   7.816  0.4283 -0.1807  0.1393
 2622TIP3    H129425   0.849   5.581   7.741  1.8856  0.1231 -0.9601
 2622TIP3    H229426   0.901   5.544   7.878 -3.2390  0.3377  1.2375
 2623TIP3   OH229427   6.157   2.487   2.242 -0.2689  0.1775  0.4665
 2623TIP3    H129428   6.182   2.408   2.290 -2.5768 -0.0328  1.4840
 2623TIP3    H229429   6.188   2.559   2.297  1.5781  0.0143 -0.3141
 2624TIP3   OH229430   1.927   2.043   1.442 -0.2403 -0.2226  0.2843
 2624TIP3    H129431   1.914   2.049   1.347  0.3437  0.9008  0.2654
 2624TIP3    H229432   2.017   2.012   1.452  0.0255  0.5976  0.4717
 2625TIP3   OH229433   1.072   3.029   8.392 -0.1579 -0.2071 -0.0926
 2625TIP3    H129434   0.989   3.044   8.437 -0.9501 -2.1061 -0.7761
 2625TIP3    H229435   1.054   3.051   8.300  0.1677 -0.3785 -0.1999
 2626TIP3   OH229436   0.325   3.331   1.471  0.5287  0.0116  0.4455
 2626TIP3    H129437   0.340   3.423   1.494  1.9659  0.1898 -1.0210
 2626TIP3    H229438   0.353   3.324   1.380  1.1169 -2.0271  0.7275
 2627TIP3   OH229439   2.229   2.858   2.566 -0.1108  0.1982 -0.2336
 2627TIP3    H129440   2.238   2.770   2.603 -1.7742 -0.6235 -1.6461
 2627TIP3    H229441   2.296   2.910   2.611  2.5148 -2.2975 -0.9438
 2628TIP3   OH229442   4.499   0.488   0.970 -0.1767 -0.3299  0.5141
 2628TIP3    H129443   4.585   0.457   0.943 -0.1431 -3.4895  3.5270
 2628TIP3    H229444   4.513   0.528   1.056 -1.2792  2.6551 -0.5538
 2629TIP3   OH229445   4.974   5.545   1.874  0.2475  0.0111 -0.2001
 2629TIP3    H129446   4.913   5.482   1.912  0.8030 -1.0093 -0.9322
 2629TIP3    H229447   5.039   5.490   1.829  0.3359  1.1149 -1.4808
 2630TIP3   OH229448   2.662   5.844   7.913 -0.6013 -0.1157 -0.0046
 2630TIP3    H129449   2.739   5.825   7.859 -0.7288 -1.0101  0.1113
 2630TIP3    H229450   2.608   5.902   7.860 -0.2022 -0.0933 -0.3886
 2631TIP3   OH229451   2.566   0.643   1.799 -0.0130  0.4579  0.3702
 2631TIP3    H129452   2.512   0.702   1.747  0.1681  0.0569 -0.2957
 2631TIP3    H229453   2.580   0.568   1.742 -0.2313 -0.2271  1.1974
 2632TIP3   OH229454   5.059   4.928   8.409 -0.1650 -0.0729  0.4724
 2632TIP3    H129455   4.994   4.955   8.474  0.9547 -1.3340  2.1851
 2632TIP3    H229456   5.142   4.956   8.446  0.3491  1.3400 -1.5967
 2633TIP3   OH229457   4.828   0.436   0.310 -0.1288 -0.3212  0.1013
 2633TIP3    H129458   4.804   0.348   0.282 -1.2026  0.0009 -0.0211
 2633TIP3    H229459   4.838   0.429   0.405  0.2393 -0.6656  0.0424
 2634TIP3   OH229460   0.071   4.149   7.607 -0.4380 -0.3121  0.3292
 2634TIP3    H129461   0.054   4.214   7.538  1.4835 -1.1660 -1.0370
 2634TIP3    H229462   0.165   4.159   7.626 -0.6139 -1.1465  1.7292
 2635TIP3   OH229463   2.951   4.463   0.552 -0.5923 -0.3012 -0.1016
 2635TIP3    H129464   2.889   4.528   0.584 -0.7600 -0.9377  0.9212
 2635TIP3    H229465   2.987   4.423   0.632  1.6084  0.4675 -0.6420
 2636TIP3   OH229466   4.465   5.249   0.448  0.0289 -0.1593 -0.0048
 2636TIP3    H129467   4.376   5.224   0.424  0.2161 -0.6419 -0.2035
 2636TIP3    H229468   4.502   5.286   0.367  0.3942 -1.0480 -0.2570
 2637TIP3   OH229469   2.978   2.994   2.144  0.3264 -0.2768  0.5065
 2637TIP3    H129470   2.892   2.955   2.127  0.9446 -1.9585  1.0497
 2637TIP3    H229471   2.958   3.083   2.174 -1.0872  0.2860 -1.8570
 2638TIP3   OH229472   6.164   6.461   2.615 -0.3160  0.2031  0.0437
 2638TIP3    H129473   6.101   6.400   2.577 -0.1464 -0.8702  1.4068
 2638TIP3    H229474   6.249   6.432   2.581 -0.2636 -0.1778  0.4862
 2639TIP3   OH229475   0.552   3.723   1.495 -0.4742  0.4874  0.2294
 2639TIP3    H129476   0.600   3.730   1.577 -0.0543 -2.9174  0.4145
 2639TIP3    H229477   0.620   3.724   1.427 -0.3503 -1.2576  0.2886
 2640TIP3   OH229478   4.478   2.639   7.450 -0.1711  0.4276  0.3551
 2640TIP3    H129479   4.570   2.664   7.449 -0.2031  0.5454  0.4365
 2640TIP3    H229480   4.477   2.552   7.409 -0.2073  1.0427 -0.9976
 2641TIP3   OH229481   1.198   6.844   7.630  0.1324 -0.2880  0.2258
 2641TIP3    H129482   1.185   6.936   7.606  1.5538 -0.3359 -0.8599
 2641TIP3    H229483   1.193   6.797   7.548  0.2387 -1.0880  0.6692
 2642TIP3   OH229484   1.824   5.340   0.111  0.0658  0.3322 -0.2520
 2642TIP3    H129485   1.849   5.289   0.034  0.8583  3.0895 -1.9296
 2642TIP3    H229486   1.893   5.321   0.175  0.1399 -0.9482 -0.6852
 2643TIP3   OH229487   4.679   2.354   8.513  0.0807 -0.3640  0.0904
 2643TIP3    H129488   4.753   2.385   8.565 -0.3035  2.1997 -0.7468
 2643TIP3    H229489   4.612   2.331   8.578  0.2608  1.0191  0.8042
 2644TIP3   OH229490   1.106   4.784   1.019  0.6624  0.2363  0.4566
 2644TIP3    H129491   1.094   4.793   1.113  1.7386 -0.3713  0.6606
 2644TIP3    H229492   1.173   4.849   0.997 -0.1981  0.9865 -0.0545
 2645TIP3   OH229493   2.984   4.251   1.751  0.2282  0.6513  0.0833
 2645TIP3    H129494   3.067   4.209   1.731  2.2121  2.8152  3.0145
 2645TIP3    H229495   2.961   4.297   1.670  1.8025 -0.0865 -0.8309
 2646TIP3   OH229496   1.207   2.819   1.090 -0.0069  0.6084 -0.3391
 2646TIP3    H129497   1.203   2.910   1.058 -0.8683  0.7803  0.2429
 2646TIP3    H229498   1.235   2.769   1.013  0.9919  1.4198 -0.5422
 2647TIP3   OH229499   3.325   2.351   8.529  0.1071  0.0646  0.1487
 2647TIP3    H129500   3.243   2.314   8.561  1.0841 -1.4183  1.0599
 2647TIP3    H229501   3.315   2.446   8.540 -1.8886  0.0123 -0.8141
 2648TIP3   OH229502   6.768   5.182   0.361  0.2604  0.2020 -0.3636
 2648TIP3    H129503   6.702   5.178   0.429 -0.9830  0.2396 -1.5251
 2648TIP3    H229504   6.772   5.093   0.325  0.8845  0.1859 -0.2759
 2649TIP3   OH229505   6.430   1.835   7.905 -0.1305  0.0886  0.3901
 2649TIP3    H129506   6.425   1.783   7.824 -0.8061 -0.5460  0.8239
 2649TIP3    H229507   6.477   1.779   7.966 -0.1975  0.3023  0.6362
 2650TIP3   OH229508   5.864   3.816   8.346  0.2591 -0.2953  0.4756
 2650TIP3    H129509   5.850   3.849   8.435  1.4707 -0.4029  0.7294
 2650TIP3    H229510   5.818   3.732   8.344 -0.9419  0.3387  0.5458
 2651TIP3   OH229511   6.304   0.379   2.651 -0.1277  0.4319 -0.1768
 2651TIP3    H129512   6.326   0.375   2.558 -2.4796 -0.5890 -0.7586
 2651TIP3    H229513   6.230   0.439   2.656 -0.4049  0.0239  0.9579
 2652TIP3   OH229514   3.265   0.886   7.206  0.0961  0.4040  0.3490
 2652TIP3    H129515   3.229   0.815   7.153  1.1170  0.4441 -0.4370
 2652TIP3    H229516   3.189   0.942   7.226 -1.2228 -2.0860  3.0525
 2653TIP3   OH229517   4.313   2.803   7.670 -0.4357  0.5413  0.5878
 2653TIP3    H129518   4.296   2.713   7.696  0.1477  0.5333  0.9540
 2653TIP3    H229519   4.237   2.828   7.618 -0.0762 -0.5518 -0.5152
 2654TIP3   OH229520   3.588   1.349   0.706 -0.6889  0.0553 -0.2558
 2654TIP3    H129521   3.547   1.392   0.781 -0.2505  1.6277 -0.8658
 2654TIP3    H229522   3.612   1.421   0.648  0.9200 -0.9727 -0.9283
 2655TIP3   OH229523   5.458   2.746   7.820 -0.6830  0.2728 -0.0004
 2655TIP3    H129524   5.530   2.720   7.877 -0.7292  0.1544  0.0040
 2655TIP3    H229525   5.452   2.675   7.755  1.2433  1.7372 -1.9128
 2656TIP3   OH229526   2.920   2.685   7.623  0.1139 -0.4133  0.8866
 2656TIP3    H129527   2.994   2.643   7.579 -0.3986  1.6525 -2.2856
 2656TIP3    H229528   2.844   2.633   7.598 -0.0756  0.2927 -0.0573
 2657TIP3   OH229529   2.770   5.113   0.183 -0.0984 -0.2301  0.0696
 2657TIP3    H129530   2.743   5.096   0.273 -1.5186  0.2532 -0.2393
 2657TIP3    H229531   2.789   5.206   0.180  0.9523 -0.4280  0.0956
 2658TIP3   OH229532   1.185   0.254   7.847 -0.3860 -0.0768  0.3129
 2658TIP3    H129533   1.178   0.168   7.887  2.1405 -0.0846  0.9265
 2658TIP3    H229534   1.147   0.314   7.911 -0.8860 -0.5839  0.4952
 2659TIP3   OH229535   5.438   4.907   2.593 -0.3893 -0.5619  0.7622
 2659TIP3    H129536   5.483   4.842   2.646  0.2294  1.0003  2.2342
 2659TIP3    H229537   5.353   4.868   2.573  0.1470 -1.9934  1.1845
 2660TIP3   OH229538   3.816   3.425   1.849  0.6490 -0.1467 -0.1111
 2660TIP3    H129539   3.749   3.373   1.895  3.3218 -1.6116  2.5421
 2660TIP3    H229540   3.828   3.502   1.904  0.2319  0.8062 -1.3196
 2661TIP3   OH229541   0.947   6.212   7.947 -0.5578 -0.5715  0.1627
 2661TIP3    H129542   0.962   6.298   7.985 -0.3606 -0.2500 -0.6305
 2661TIP3    H229543   0.940   6.153   8.022  1.2570 -0.1865  0.6739
 2662TIP3   OH229544   2.847   3.161   8.226 -0.0821 -0.3848 -0.3753
 2662TIP3    H129545   2.806   3.215   8.294 -0.8918 -1.9868  0.4597
 2662TIP3    H229546   2.776   3.142   8.164  0.0199 -1.0573 -0.2915
 2663TIP3   OH229547   5.223   6.003   2.419  0.1597 -0.5758 -0.3456
 2663TIP3    H129548   5.183   5.925   2.381 -0.1573 -1.1218  1.0555
 2663TIP3    H229549   5.176   6.016   2.501  2.0330 -0.5463  0.7778
 2664TIP3   OH229550   3.906   0.629   1.156 -0.4056 -0.1562  0.6994
 2664TIP3    H129551   3.895   0.620   1.251 -4.0012  0.3944  0.4548
 2664TIP3    H229552   3.901   0.540   1.123 -0.9177 -0.2105  0.9139
 2665TIP3   OH229553   0.181   0.276   7.763  0.4155 -0.3229 -0.1500
 2665TIP3    H129554   0.206   0.353   7.814  1.7765 -0.2060 -0.9585
 2665TIP3    H229555   0.243   0.208   7.789 -0.8834 -1.2356  0.6867
 2666TIP3   OH229556   5.507   6.023   8.174 -0.3188  0.2372  0.0668
 2666TIP3    H129557   5.464   6.091   8.123 -0.5869 -0.8757 -1.2649
 2666TIP3    H229558   5.435   5.968   8.205  0.0146 -0.9042 -1.0885
 2667TIP3   OH229559   5.386   1.934   6.578  0.9504 -0.3769 -0.0441
 2667TIP3    H129560   5.451   1.873   6.543 -0.6975 -2.7622  0.7941
 2667TIP3    H229561   5.434   1.987   6.641  3.0349  1.1829 -2.7029
 2668TIP3   OH229562   6.736   6.850   1.251  0.2157 -0.0248 -0.4339
 2668TIP3    H129563   6.823   6.815   1.229 -0.3950 -0.4984 -2.2679
 2668TIP3    H229564   6.739   6.863   1.345  1.4740 -2.3222 -0.0764
 2669TIP3   OH229565   4.186   1.448   2.871  0.3286 -0.3633 -0.0761
 2669TIP3    H129566   4.248   1.487   2.933  0.2653 -0.8585  0.3039
 2669TIP3    H229567   4.108   1.431   2.922 -0.6271  1.4603 -0.8478
 2670TIP3   OH229568   2.141   3.188   1.822 -0.3999 -0.4453 -0.2070
 2670TIP3    H129569   2.145   3.266   1.878 -0.2178 -1.6832  1.5777
 2670TIP3    H229570   2.053   3.153   1.835 -0.9063  0.0829 -1.9431
 2671TIP3   OH229571   0.590   2.874   7.719 -0.2156  0.0193 -0.2276
 2671TIP3    H129572   0.538   2.903   7.794 -0.2132  0.4716 -0.3970
 2671TIP3    H229573   0.663   2.935   7.715  0.9831 -1.3109  0.7035
 2672TIP3   OH229574   5.793   4.674   7.202  0.0013  0.2372  0.0015
 2672TIP3    H129575   5.710   4.647   7.242 -0.5507 -1.8409 -2.2774
 2672TIP3    H229576   5.788   4.770   7.199 -3.0872  0.1613 -1.4399
 2673TIP3   OH229577   0.516   1.521   1.627 -0.6492  0.3493  0.3843
 2673TIP3    H129578   0.498   1.527   1.721 -2.2273 -1.3409  0.2312
 2673TIP3    H229579   0.612   1.525   1.621 -0.5470  1.1727  1.9840
 2674TIP3   OH229580   1.269   2.979   1.893  0.1566  0.2263 -0.1617
 2674TIP3    H129581   1.246   3.072   1.901 -0.0561  0.1258  0.4123
 2674TIP3    H229582   1.202   2.943   1.835 -0.1545  0.2918  0.1539
 2675TIP3   OH229583   5.850   5.625   0.074 -0.0588 -0.1087 -0.0140
 2675TIP3    H129584   5.928   5.587   0.114 -0.6460 -1.1480  0.1813
 2675TIP3    H229585   5.830   5.567   0.001 -1.0526 -0.2883  0.3781
 2676TIP3   OH229586   4.658   5.959   1.618  0.0113  0.4429 -0.4698
 2676TIP3    H129587   4.719   6.029   1.640 -0.2168  0.0852  1.4727
 2676TIP3    H229588   4.697   5.916   1.542  0.1816  2.6100 -1.6960
 2677TIP3   OH229589   3.081   0.504   2.607  0.1269  0.1370 -0.2476
 2677TIP3    H129590   3.162   0.473   2.648  1.0487  0.9805 -1.3522
 2677TIP3    H229591   3.063   0.438   2.539  1.9040  1.6874 -2.3737
 2678TIP3   OH229592   3.847   2.425   1.677  0.0140  0.2288  0.2870
 2678TIP3    H129593   3.897   2.481   1.737  0.0255  0.3668  0.1485
 2678TIP3    H229594   3.847   2.473   1.594 -0.4025  0.2582  0.3044
 2679TIP3   OH229595   0.171   0.990   0.728  0.4725 -0.0201  0.3495
 2679TIP3    H129596   0.120   1.070   0.743  0.0273 -0.3418  0.5685
 2679TIP3    H229597   0.202   0.999   0.638  2.2872  1.4357  1.0587
 2680TIP3   OH229598   5.465   6.426   7.944  0.6794 -0.2963  0.0002
 2680TIP3    H129599   5.508   6.365   7.884  1.1580 -0.7916  0.8226
 2680TIP3    H229600   5.513   6.508   7.933 -2.0151  1.0640 -3.5730
 2681TIP3   OH229601   1.044   5.634   8.149 -0.0257 -0.4560 -0.3240
 2681TIP3    H129602   1.130   5.669   8.125 -0.3249 -0.4385 -1.3927
 2681TIP3    H229603   0.983   5.672   8.086 -0.7546 -0.8617  0.1130
 2682TIP3   OH229604   1.848   2.939   1.935 -0.3125  0.1495  0.1588
 2682TIP3    H129605   1.755   2.941   1.957 -0.4632  0.0119 -0.4450
 2682TIP3    H229606   1.870   3.028   1.910  0.1411  0.5837  1.9276
 2683TIP3   OH229607   3.614   0.089   2.682 -0.1070  0.7007  0.3322
 2683TIP3    H129608   3.677   0.023   2.652 -0.8643  0.5462 -0.9703
 2683TIP3    H229609   3.653   0.124   2.762  0.1036 -1.6348  1.3328
 2684TIP3   OH229610   4.393   1.734   0.245  0.2256 -0.1472 -0.2086
 2684TIP3    H129611   4.342   1.804   0.206 -0.3885 -0.2420  0.4070
 2684TIP3    H229612   4.463   1.717   0.181  0.0127  0.5828 -0.6499
 2685TIP3   OH229613   3.469   4.935   7.594 -0.6300 -0.0044  0.0755
 2685TIP3    H129614   3.391   4.881   7.605  0.2900 -1.3393  0.3181
 2685TIP3    H229615   3.517   4.925   7.676  0.2459  0.0302 -0.4197
 2686TIP3   OH229616   5.946   1.116   6.326  0.2275  0.1587  0.1220
 2686TIP3    H129617   5.937   1.026   6.356  2.8308  0.6185  2.7399
 2686TIP3    H229618   5.866   1.160   6.357 -0.2878 -0.8610  0.2835
 2687TIP3   OH229619   6.554   6.620   2.122  0.3218 -0.4103 -0.4757
 2687TIP3    H129620   6.633   6.671   2.139  1.6188 -2.7544  1.1813
 2687TIP3    H229621   6.486   6.662   2.175  0.9158  0.5121 -0.4313
 2688TIP3   OH229622   1.902   6.176   0.305  0.6816  0.2105  0.5881
 2688TIP3    H129623   1.917   6.139   0.392 -1.9627 -0.2616  0.9102
 2688TIP3    H229624   1.867   6.264   0.322 -1.0135 -0.3388  0.0793
 2689TIP3   OH229625   4.002   4.071   7.095  0.6457  0.1867 -0.0146
 2689TIP3    H129626   3.933   4.038   7.152 -1.1444  2.3838 -0.7673
 2689TIP3    H229627   4.082   4.063   7.147 -0.5832  0.1257  1.9718
 2690TIP3   OH229628   1.276   6.630   0.170 -0.3159 -0.8436 -0.9292
 2690TIP3    H129629   1.248   6.571   0.240  0.1710  0.2442  0.2252
 2690TIP3    H229630   1.197   6.644   0.118 -1.4265  0.4150  0.9827
 2691TIP3   OH229631   1.643   6.162   1.234  0.4346  0.7282  0.2859
 2691TIP3    H129632   1.577   6.228   1.256 -0.5457 -0.9800  2.9347
 2691TIP3    H229633   1.595   6.079   1.236  1.5307 -0.1910 -3.3008
 2692TIP3   OH229634   2.675   1.783   1.424  0.3654  0.6646  0.7888
 2692TIP3    H129635   2.652   1.769   1.332 -0.8470 -2.0816  1.4172
 2692TIP3    H229636   2.614   1.852   1.453 -0.0720  0.6948 -0.1477
 2693TIP3   OH229637   0.115   5.534   0.232  0.6136 -0.0347  0.3065
 2693TIP3    H129638   0.080   5.623   0.222  1.2192  0.0980 -0.7235
 2693TIP3    H229639   0.111   5.497   0.144  0.6520 -0.9229  0.6752
 2694TIP3   OH229640   1.105   1.367   7.769  0.3395  0.8174 -0.3307
 2694TIP3    H129641   1.049   1.311   7.823 -0.8738 -0.4600 -2.7670
 2694TIP3    H229642   1.124   1.443   7.825 -0.9719 -0.3077  1.7768
 2695TIP3   OH229643   2.123   6.353   1.049 -0.4065 -0.1364 -0.1373
 2695TIP3    H129644   2.044   6.407   1.045 -0.5637 -0.3042  0.6153
 2695TIP3    H229645   2.107   6.291   1.120  1.2558  1.1884  1.4971
 2696TIP3   OH229646   5.934   6.847   7.495 -0.2689  0.0559  0.3381
 2696TIP3    H129647   5.962   6.882   7.411 -0.3430 -0.1997  0.2071
 2696TIP3    H229648   5.869   6.910   7.527  1.0665  1.1194  1.0501
 2697TIP3   OH229649   6.240   5.607   3.278 -0.1587 -0.7177 -0.0154
 2697TIP3    H129650   6.310   5.669   3.298 -1.3390  0.8305 -0.4699
 2697TIP3    H229651   6.262   5.572   3.192  0.9373 -1.5711  0.5928
 2698TIP3   OH229652   2.909   4.635   1.744  0.5811  0.0319 -0.9248
 2698TIP3    H129653   2.821   4.612   1.776  0.6420  0.0568 -0.7372
 2698TIP3    H229654   2.923   4.724   1.774  1.6508 -0.7852  1.2176
 2699TIP3   OH229655   5.890   6.040   8.286  0.2535 -0.8900 -0.3028
 2699TIP3    H129656   5.883   6.116   8.228  2.3074 -1.0283 -0.8135
 2699TIP3    H229657   5.839   5.972   8.244  0.2232 -0.4474 -0.9964
 2700TIP3   OH229658   6.567   3.139   1.240  0.6755  0.3182  0.4743
 2700TIP3    H129659   6.602   3.059   1.201  0.6200  0.2960  0.4696
 2700TIP3    H229660   6.611   3.210   1.194  2.1077  0.2938  1.7076
 2701TIP3   OH229661   4.470   2.414   7.287  0.2790  0.2254  0.7081
 2701TIP3    H129662   4.537   2.346   7.277 -0.4624 -0.8292  2.4350
 2701TIP3    H229663   4.486   2.474   7.214  0.0073 -2.5660 -1.8456
 2702TIP3   OH229664   5.219   5.487   1.056  0.2800 -0.0503 -0.1745
 2702TIP3    H129665   5.169   5.567   1.070 -0.3357 -0.4737  0.0633
 2702TIP3    H229666   5.253   5.464   1.142 -0.5656 -0.7112 -0.0055
 2703TIP3   OH229667   4.887   6.556   8.583 -0.1003  0.4257 -0.4036
 2703TIP3    H129668   4.975   6.540   8.617  0.0030 -0.6885 -1.1378
 2703TIP3    H229669   4.832   6.490   8.626 -0.9685  2.2002  1.3977
 2704TIP3   OH229670   5.452   6.419   0.566 -0.7190  0.1047 -0.3053
 2704TIP3    H129671   5.428   6.483   0.500  2.3212  2.8464  0.9642
 2704TIP3    H229672   5.538   6.387   0.540  0.0662  0.4302  1.6554
 2705TIP3   OH229673   1.768   0.522   8.345  0.2386  0.6345  0.4707
 2705TIP3    H129674   1.715   0.565   8.412 -0.4548  0.4499  0.0467
 2705TIP3    H229675   1.843   0.486   8.393 -0.9445 -0.7125  1.3804
 2706TIP3   OH229676   5.045   4.967   0.933 -0.1404  0.0158 -0.4696
 2706TIP3    H129677   5.069   4.995   0.845  0.4984  1.5248  0.1504
 2706TIP3    H229678   5.068   5.041   0.989 -1.2098 -0.6194  0.8798
 2707TIP3   OH229679   2.083   6.284   7.818  0.6066 -0.0885 -0.0938
 2707TIP3    H129680   2.141   6.349   7.859 -0.1392  0.8226 -0.4337
 2707TIP3    H229681   2.046   6.236   7.892 -0.4025  1.2616  0.3182
 2708TIP3   OH229682   2.340   1.897   7.038  0.2935 -0.1912  0.4279
 2708TIP3    H129683   2.295   1.834   7.095 -0.6034 -0.4942 -0.5794
 2708TIP3    H229684   2.413   1.846   7.001  1.5542  0.3063  2.0767
 2709TIP3   OH229685   6.211   6.430   8.233 -0.0696 -0.0769  0.1700
 2709TIP3    H129686   6.124   6.450   8.267  0.8561  0.6170  2.3161
 2709TIP3    H229687   6.205   6.340   8.201 -1.3852 -0.2776  0.9518
 2710TIP3   OH229688   1.597   6.567   2.200  0.5506  0.0288  0.1124
 2710TIP3    H129689   1.625   6.490   2.249 -0.2138  0.5213  1.3745
 2710TIP3    H229690   1.502   6.570   2.213  0.6989  1.8284  1.1021
 2711TIP3   OH229691   2.322   3.911   7.730  0.0337  0.1074  0.4285
 2711TIP3    H129692   2.279   3.992   7.757  1.3907  0.7183  0.8786
 2711TIP3    H229693   2.315   3.911   7.634 -1.7575 -0.3022  0.5314
 2712TIP3   OH229694   2.331   0.393   1.983 -0.0587  0.2726 -0.0896
 2712TIP3    H129695   2.367   0.364   1.899 -1.1466 -0.2004 -0.4113
 2712TIP3    H229696   2.260   0.453   1.960  1.2390  2.1797  0.5524
 2713TIP3   OH229697   4.857   4.845   7.154  0.1180  0.3877 -0.6521
 2713TIP3    H129698   4.769   4.827   7.118  0.7464  2.1834 -3.3554
 2713TIP3    H229699   4.863   4.940   7.156  1.1906  0.3317  1.8379
 2714TIP3   OH229700   4.592   3.195   0.887  0.5369  0.2813  0.1911
 2714TIP3    H129701   4.505   3.193   0.926  0.7651  0.1233  0.7003
 2714TIP3    H229702   4.651   3.168   0.957  0.7772 -1.8288 -0.7474
 2715TIP3   OH229703   5.378   2.852   2.095 -0.3820  0.7197  0.5617
 2715TIP3    H129704   5.386   2.782   2.159 -0.1865  0.4419  0.2343
 2715TIP3    H229705   5.337   2.811   2.019 -1.2074  1.1998  0.7434
 2716TIP3   OH229706   4.100   4.086   1.473 -0.0676  0.2058  0.4314
 2716TIP3    H129707   4.093   4.085   1.378  2.5525  0.0587  0.1669
 2716TIP3    H229708   4.012   4.108   1.503 -0.7564  1.1895 -2.0406
 2717TIP3   OH229709   5.620   4.716   2.693  0.5701 -0.7086  0.4503
 2717TIP3    H129710   5.688   4.782   2.677 -1.1583  0.8240 -0.8963
 2717TIP3    H229711   5.612   4.714   2.789  2.2981 -0.7402  0.6299
 2718TIP3   OH229712   6.199   6.837   0.206  0.2068 -0.0517 -1.1178
 2718TIP3    H129713   6.201   6.842   0.110 -0.8813 -2.1356 -1.3126
 2718TIP3    H229714   6.185   6.744   0.224 -1.3103  0.5283  1.0214
 2719TIP3   OH229715   5.476   4.649   0.658 -0.1102 -0.4187 -0.1103
 2719TIP3    H129716   5.511   4.596   0.586 -0.1326 -1.1067  0.3753
 2719TIP3    H229717   5.546   4.711   0.679  0.2834 -0.8703 -0.0699
 2720TIP3   OH229718   0.822   1.785   6.602 -0.0630  0.3859 -0.0871
 2720TIP3    H129719   0.828   1.690   6.611 -0.0314  0.4402  0.4984
 2720TIP3    H229720   0.887   1.807   6.536 -0.1457 -0.0096 -0.3050
 2721TIP3   OH229721   5.663   0.040   7.715 -0.1991  0.4062 -0.0730
 2721TIP3    H129722   5.745   0.079   7.746  1.4896 -1.5454 -1.8473
 2721TIP3    H229723   5.642   0.090   7.636 -0.3451  0.4231 -0.0245
 2722TIP3   OH229724   6.318   1.426   1.613 -0.5238 -0.2263 -0.3359
 2722TIP3    H129725   6.355   1.461   1.694 -1.2755 -0.2258  0.0158
 2722TIP3    H229726   6.375   1.352   1.591  0.1713  0.2685 -0.2656
 2723TIP3   OH229727   3.374   0.320   7.115  0.0797 -0.0976  0.3234
 2723TIP3    H129728   3.396   0.278   7.198  0.2740  0.4770  0.5673
 2723TIP3    H229729   3.450   0.374   7.094  0.1979 -0.5507 -0.4369
 2724TIP3   OH229730   6.613   1.138   2.384 -0.4148 -0.1031  0.1799
 2724TIP3    H129731   6.606   1.148   2.289 -1.6546 -0.5194  0.2089
 2724TIP3    H229732   6.553   1.203   2.419  1.2117  1.1556  0.7620
 2725TIP3   OH229733   2.750   1.737   0.806 -0.0781  0.4816 -0.4298
 2725TIP3    H129734   2.736   1.744   0.900  0.5782 -1.0926 -0.1937
 2725TIP3    H229735   2.662   1.726   0.769 -0.2927  0.6266  0.0344
 2726TIP3   OH229736   3.862   0.751   7.715  0.2054 -0.1982 -0.1149
 2726TIP3    H129737   3.950   0.714   7.701  0.5437 -0.6703  2.6681
 2726TIP3    H229738   3.803   0.677   7.702  0.1546  0.1175 -1.9892
 2727TIP3   OH229739   3.148   2.233   0.797 -0.5474 -0.1196  0.0450
 2727TIP3    H129740   3.200   2.215   0.718 -0.6878 -3.5550  0.5815
 2727TIP3    H229741   3.107   2.149   0.818 -3.5578  1.5727  1.6697
 2728TIP3   OH229742   5.153   2.965   7.778 -0.8569 -0.2154 -0.1776
 2728TIP3    H129743   5.188   3.050   7.751 -0.1304 -0.5833 -0.4128
 2728TIP3    H229744   5.161   2.910   7.700 -2.1783 -0.2507 -0.3081
 2729TIP3   OH229745   3.775   2.125   7.395  0.3186  0.0653 -0.0573
 2729TIP3    H129746   3.729   2.049   7.430  0.0992 -0.1781 -0.8514
 2729TIP3    H229747   3.796   2.101   7.305  1.2832  0.4935  0.0440
 2730TIP3   OH229748   0.209   1.449   7.406  0.2047  0.3760  1.0074
 2730TIP3    H129749   0.134   1.502   7.433  1.9822  1.8192  3.5653
 2730TIP3    H229750   0.186   1.418   7.319 -3.6667  0.0884  1.9321
 2731TIP3   OH229751   3.304   5.794   2.126  0.1972 -0.1703 -0.3596
 2731TIP3    H129752   3.284   5.806   2.219 -0.0390  0.0047 -0.4311
 2731TIP3    H229753   3.235   5.843   2.081  1.2482  1.1284 -0.6062
 2732TIP3   OH229754   0.851   5.270   6.794  0.0161 -0.2935  1.1080
 2732TIP3    H129755   0.941   5.289   6.820  0.6514  1.6101 -2.0160
 2732TIP3    H229756   0.858   5.201   6.729 -0.7109  0.2044  0.4809
 2733TIP3   OH229757   5.014   1.031   1.820  0.0741  0.0495 -0.5220
 2733TIP3    H129758   4.991   0.938   1.822 -0.0860  0.1012  0.2827
 2733TIP3    H229759   4.983   1.061   1.734 -1.9285 -0.1340  0.0801
 2734TIP3   OH229760   6.676   0.047   0.985  0.6642 -0.0533  0.2235
 2734TIP3    H129761   6.688   0.029   0.891 -0.5408  0.3095 -0.0130
 2734TIP3    H229762   6.651   0.139   0.989 -0.3028 -0.3258  0.8068
 2735TIP3   OH229763   4.956   0.638   8.358 -0.4311  0.3204 -0.6953
 2735TIP3    H129764   4.891   0.670   8.295 -0.9147  0.0650 -0.3348
 2735TIP3    H229765   4.916   0.559   8.394  0.5297 -0.4218 -1.2144
 2736TIP3   OH229766   2.376   2.473   0.822  0.1564 -0.4778 -0.0739
 2736TIP3    H129767   2.333   2.466   0.908 -0.9386  1.1582 -0.4485
 2736TIP3    H229768   2.405   2.564   0.817  0.0763 -0.5081 -1.4977
 2737TIP3   OH229769   1.432   0.932   8.506 -0.3476 -0.4032 -0.0091
 2737TIP3    H129770   1.366   0.972   8.449  0.0646  0.3587  0.0288
 2737TIP3    H229771   1.401   0.950   8.595  0.8640  1.7196  0.0580
 2738TIP3   OH229772   3.871   4.690   7.516  0.3038  0.1533  0.1191
 2738TIP3    H129773   3.868   4.633   7.593 -2.0108 -0.8336 -0.5994
 2738TIP3    H229774   3.896   4.631   7.444 -1.3558  0.1711 -0.5027
 2739TIP3   OH229775   3.807   6.069   8.457 -0.2849 -0.6014  0.3509
 2739TIP3    H129776   3.874   6.114   8.405 -0.3581 -0.2353  0.5655
 2739TIP3    H229777   3.740   6.136   8.473 -0.2428 -0.6922  0.9439
 2740TIP3   OH229778   0.519   5.383   0.693 -0.4544 -0.2856  0.3639
 2740TIP3    H129779   0.611   5.374   0.669  0.2453 -0.0128  2.6598
 2740TIP3    H229780   0.489   5.294   0.710 -0.4966 -0.3332  0.0476
 2741TIP3   OH229781   1.222   1.755   0.800  0.0840  0.5229 -0.4191
 2741TIP3    H129782   1.150   1.818   0.790  0.8807  1.6671  0.6661
 2741TIP3    H229783   1.271   1.787   0.876  1.7068 -0.2547 -1.0858
 2742TIP3   OH229784   4.273   4.600   1.538  0.2620  0.7609 -0.5701
 2742TIP3    H129785   4.321   4.546   1.601 -1.7573 -0.4011  0.0676
 2742TIP3    H229786   4.198   4.546   1.512 -0.4856  2.3172 -1.8539
 2743TIP3   OH229787   5.847   2.999   8.418 -0.1156 -0.2391  0.3728
 2743TIP3    H129788   5.852   2.959   8.331 -1.4298 -1.6356  0.9016
 2743TIP3    H229789   5.882   3.088   8.406  1.4298 -0.9982 -1.1693
 2744TIP3   OH229790   0.701   5.239   0.542  0.5749 -0.0644 -0.2476
 2744TIP3    H129791   0.695   5.144   0.528  1.1894 -0.0138 -0.9214
 2744TIP3    H229792   0.668   5.277   0.460  2.9602  0.2595 -1.1317
 2745TIP3   OH229793   4.104   3.545   2.370  0.7675 -0.1136 -0.0885
 2745TIP3    H129794   4.126   3.539   2.463  0.7020 -0.0287 -0.0676
 2745TIP3    H229795   4.054   3.465   2.352  0.0946  0.2481  0.1391
 2746TIP3   OH229796   1.849   6.476   0.692  0.6031  0.5912 -0.2924
 2746TIP3    H129797   1.889   6.497   0.777  2.7123  0.2547 -1.1304
 2746TIP3    H229798   1.782   6.412   0.712  2.2938 -0.8905  0.9612
 2747TIP3   OH229799   2.016   3.921   8.418 -0.1571  0.4219 -0.0993
 2747TIP3    H129800   2.003   3.898   8.326  0.8866 -0.6862  0.0056
 2747TIP3    H229801   2.058   4.007   8.416  1.1261 -0.1982 -0.7203
 2748TIP3   OH229802   6.307   3.192   1.341  0.2018  0.0811 -0.2542
 2748TIP3    H129803   6.358   3.271   1.320  1.1430 -0.5276 -0.3319
 2748TIP3    H229804   6.373   3.123   1.351 -0.6267 -0.7764 -0.5353
 2749TIP3   OH229805   4.229   4.690   8.445 -0.0774 -0.3327  0.7071
 2749TIP3    H129806   4.279   4.609   8.434 -0.2172 -0.5002  1.3051
 2749TIP3    H229807   4.138   4.663   8.439 -0.2709 -0.7434  3.8819
 2750TIP3   OH229808   3.531   6.534   7.570 -0.4523  0.2555 -0.4369
 2750TIP3    H129809   3.488   6.483   7.502  2.3888 -0.9936 -1.4564
 2750TIP3    H229810   3.492   6.621   7.563 -1.4492 -0.2891 -2.4895
 2751TIP3   OH229811   2.005   2.606   0.898  0.2188  0.3104  0.2740
 2751TIP3    H129812   2.049   2.657   0.829  2.1902 -0.8817  0.5557
 2751TIP3    H229813   1.977   2.526   0.854 -0.8579  0.6357  0.3301
 2752TIP3   OH229814   1.049   1.917   2.975  0.2241 -0.0276  0.7779
 2752TIP3    H129815   1.090   2.000   2.950 -0.4301  0.4917  1.3807
 2752TIP3    H229816   1.113   1.850   2.951  0.5812  0.6136 -0.1298
 2753TIP3   OH229817   4.803   5.327   8.297  0.0703 -0.0801  0.7331
 2753TIP3    H129818   4.819   5.304   8.205  0.7938 -0.0281  0.8469
 2753TIP3    H229819   4.762   5.249   8.334  0.2487 -0.2893  0.4951
 2754TIP3   OH229820   5.564   0.103   0.036  0.5049 -0.2771 -0.0564
 2754TIP3    H129821   5.570   0.160   0.113  0.4428 -0.9499  0.4508
 2754TIP3    H229822   5.471   0.081   0.030  0.6245 -0.8397  0.1287
 2755TIP3   OH229823   4.949   3.813   7.833  0.2783 -0.1874  0.0733
 2755TIP3    H129824   4.939   3.874   7.906 -0.0694 -0.6841  0.4409
 2755TIP3    H229825   4.912   3.731   7.864  0.1587 -0.4142 -0.6505
 2756TIP3   OH229826   5.063   2.644   0.215 -0.0515  0.5171 -0.1739
 2756TIP3    H129827   5.038   2.728   0.254 -0.3878  1.7500 -2.8191
 2756TIP3    H229828   5.016   2.579   0.267  0.3261  1.9051  2.0530
 2757TIP3   OH229829   4.555   0.181   0.842  0.0725  0.1726  0.4263
 2757TIP3    H129830   4.626   0.124   0.813  1.8208  2.3928 -0.0032
 2757TIP3    H229831   4.481   0.158   0.786  1.3379 -0.3002 -1.1436
 2758TIP3   OH229832   5.498   5.995   2.216 -0.1049 -0.2599 -0.2057
 2758TIP3    H129833   5.504   6.025   2.125 -0.4312 -1.1421 -0.5268
 2758TIP3    H229834   5.469   5.904   2.210  1.4627 -0.8535  0.7191
 2759TIP3   OH229835   2.025   4.522   7.111  0.0459 -0.5106  0.6494
 2759TIP3    H129836   1.953   4.485   7.061 -0.1616  0.4489  0.2269
 2759TIP3    H229837   2.062   4.447   7.158 -1.1431 -1.0373  0.7830
 2760TIP3   OH229838   1.551   2.841   7.333 -0.1450  0.4067 -0.0762
 2760TIP3    H129839   1.532   2.748   7.345  2.4503 -0.0682  1.0238
 2760TIP3    H229840   1.601   2.844   7.252 -1.7977  1.1543 -1.1198
 2761TIP3   OH229841   3.322   0.411   2.197  0.0608 -0.2078  0.0112
 2761TIP3    H129842   3.257   0.341   2.192  0.0499 -0.1265 -1.3316
 2761TIP3    H229843   3.405   0.367   2.182  0.0576  0.0566 -0.7957
 2762TIP3   OH229844   0.419   4.445   0.956  0.0890  0.1550 -0.5128
 2762TIP3    H129845   0.411   4.357   0.994 -1.8658  0.7578  0.6085
 2762TIP3    H229846   0.411   4.504   1.031 -0.8747  1.3314 -1.5091
 2763TIP3   OH229847   4.153   4.978   7.974 -0.6946  0.1880  0.6502
 2763TIP3    H129848   4.210   4.978   8.052  0.0766 -3.4961  0.2712
 2763TIP3    H229849   4.071   4.940   8.005 -1.3676  1.1845  0.1573
 2764TIP3   OH229850   6.884   6.063   1.996  0.1063 -0.4551 -0.0117
 2764TIP3    H129851   6.955   6.000   1.983  1.3467  0.9006 -0.0605
 2764TIP3    H229852   6.896   6.093   2.087 -1.4625 -1.4321  0.5615
 2765TIP3   OH229853   3.427   2.012   7.407 -0.6140  0.3660 -0.5144
 2765TIP3    H129854   3.518   1.983   7.414 -0.9801 -0.4773  1.6469
 2765TIP3    H229855   3.432   2.101   7.372  1.0047  0.1687 -0.8440
 2766TIP3   OH229856   6.058   0.383   0.263  0.7216  0.1492 -0.1237
 2766TIP3    H129857   6.059   0.436   0.343  1.2575  0.6589 -0.4545
 2766TIP3    H229858   5.991   0.318   0.278  0.4906  0.5339  0.5584
 2767TIP3   OH229859   1.785   2.905   8.080 -0.6171  0.6646 -0.1989
 2767TIP3    H129860   1.700   2.861   8.079 -1.3552  1.9751  1.0165
 2767TIP3    H229861   1.836   2.861   8.012 -1.3986 -1.8438  0.7464
 2768TIP3   OH229862   3.242   0.083   7.736 -0.5459 -0.1729  0.3604
 2768TIP3    H129863   3.203   0.106   7.652 -0.8991 -1.1896  0.2338
 2768TIP3    H229864   3.189   0.009   7.767 -0.1829 -0.0474  1.2983
 2769TIP3   OH229865   6.764   6.242   6.993 -0.1656  0.8237 -0.3798
 2769TIP3    H129866   6.722   6.222   7.077  0.3779 -0.0922 -0.3073
 2769TIP3    H229867   6.773   6.156   6.950  2.7281  0.7851  0.1323
 2770TIP3   OH229868   2.882   2.695   7.900 -0.0725 -0.5744  0.3249
 2770TIP3    H129869   2.905   2.695   7.807  2.0992 -0.6345  0.8084
 2770TIP3    H229870   2.891   2.603   7.927 -1.8746 -0.7698  0.3676
 2771TIP3   OH229871   1.500   3.627   1.392  0.6201 -0.1211 -0.2658
 2771TIP3    H129872   1.465   3.540   1.374  1.6940 -0.8839  1.1131
 2771TIP3    H229873   1.589   3.624   1.358  2.0117 -0.9374  3.0302
 2772TIP3   OH229874   5.086   2.314   6.635  0.2807 -0.1491  0.1181
 2772TIP3    H129875   5.163   2.370   6.633 -1.1799  2.0812  1.7649
 2772TIP3    H229876   5.033   2.347   6.707 -2.6558 -0.9774 -1.4657
 2773TIP3   OH229877   3.377   3.895   7.879  0.3841  1.0661 -0.2365
 2773TIP3    H129878   3.426   3.892   7.961 -0.7241 -0.1672  0.3894
 2773TIP3    H229879   3.367   3.989   7.862 -0.4698  1.3672  1.6987
 2774TIP3   OH229880   3.539   0.663   7.518  0.2817  0.1679 -0.1682
 2774TIP3    H129881   3.546   0.643   7.611 -1.2941  0.9128  0.1415
 2774TIP3    H229882   3.542   0.578   7.475 -1.8327 -0.4528  0.7903
 2775TIP3   OH229883   3.408   5.494   1.302  0.3952 -0.2888 -0.6602
 2775TIP3    H129884   3.408   5.563   1.368 -0.0924 -0.8041 -0.1085
 2775TIP3    H229885   3.367   5.419   1.345 -0.7395 -0.3775 -1.8200
 2776TIP3   OH229886   5.496   6.727   7.789  0.1787  1.2177  0.5334
 2776TIP3    H129887   5.531   6.811   7.759  0.3449  0.8746 -0.2779
 2776TIP3    H229888   5.535   6.713   7.875  3.0812  0.2631 -0.8190
 2777TIP3   OH229889   5.365   1.825   0.565  0.2862 -0.2136 -0.8148
 2777TIP3    H129890   5.273   1.807   0.586  0.3972 -0.9751 -0.9407
 2777TIP3    H229891   5.363   1.907   0.516 -0.1048  0.9750  1.0823
 2778TIP3   OH229892   4.503   2.385   0.983  0.1507 -0.4254  0.1540
 2778TIP3    H129893   4.459   2.301   0.970  1.1727 -1.2127  1.5094
 2778TIP3    H229894   4.488   2.433   0.902 -1.8363 -1.2647 -0.0319
 2779TIP3   OH229895   4.088   6.908   1.851  0.1885  0.2827  0.4869
 2779TIP3    H129896   4.031   6.985   1.858  0.4533  0.5413 -0.1288
 2779TIP3    H229897   4.168   6.941   1.810  0.6818 -0.1317  1.0919
 2780TIP3   OH229898   0.790   6.299   2.202  0.2982 -0.1335 -0.3347
 2780TIP3    H129899   0.844   6.335   2.273  0.9060  0.8544 -1.2730
 2780TIP3    H229900   0.851   6.244   2.152 -0.5871 -2.5155  1.0196
 2781TIP3   OH229901   0.111   5.844   6.925 -0.5509  0.1417  0.7769
 2781TIP3    H129902   0.180   5.901   6.960 -2.2301  2.0071  1.2857
 2781TIP3    H229903   0.155   5.786   6.864  1.1661  2.7252 -0.5967
 2782TIP3   OH229904   6.235   0.726   2.473  0.2357  0.0133  0.2804
 2782TIP3    H129905   6.317   0.679   2.486 -0.0915 -0.2603  1.5194
 2782TIP3    H229906   6.171   0.676   2.524 -0.9125 -0.3443 -1.4396
 2783TIP3   OH229907   2.321   6.380   0.147  0.3078 -0.0488 -0.2434
 2783TIP3    H129908   2.412   6.351   0.146  0.1601 -0.5642  0.3832
 2783TIP3    H229909   2.288   6.352   0.232 -0.9245 -1.3827 -1.1186
 2784TIP3   OH229910   5.013   0.024   7.404  0.0928  0.4356  0.1058
 2784TIP3    H129911   5.091   0.023   7.348  0.7531  2.4332  0.8885
 2784TIP3    H229912   5.040   0.073   7.482 -1.4381 -0.3893  1.2069
 2785TIP3   OH229913   4.499   2.822   1.745 -0.0309 -0.2657  0.0390
 2785TIP3    H129914   4.481   2.902   1.695 -1.6915 -2.1017 -2.5383
 2785TIP3    H229915   4.413   2.792   1.773  0.6768 -0.6200  1.9794
 2786TIP3   OH229916   3.384   3.856   8.196 -0.1144  0.4791 -0.6262
 2786TIP3    H129917   3.319   3.923   8.176 -0.0803  0.1531 -1.9272
 2786TIP3    H229918   3.454   3.903   8.240 -1.4886  0.7257  1.4187
 2787TIP3   OH229919   0.301   2.434   1.373  0.0141  0.0445 -0.1680
 2787TIP3    H129920   0.393   2.422   1.351  0.0912 -0.2402  0.2850
 2787TIP3    H229921   0.284   2.527   1.357  0.5376  0.2293  0.2943
 2788TIP3   OH229922   4.427   3.579   1.290 -0.0774  0.4198 -0.0094
 2788TIP3    H129923   4.505   3.629   1.314 -0.7128  0.4721  2.1497
 2788TIP3    H229924   4.461   3.495   1.260  0.8596  0.9752 -0.5614
 2789TIP3   OH229925   0.942   5.361   8.272 -0.0176 -0.5694 -0.0596
 2789TIP3    H129926   0.981   5.446   8.253 -1.2150 -0.4304 -2.2754
 2789TIP3    H229927   0.935   5.318   8.186 -2.7714 -1.3816  0.4694
 2790TIP3   OH229928   5.001   0.752   7.504 -0.1035  0.1006  0.6720
 2790TIP3    H129929   4.960   0.764   7.590 -1.5208  0.3939 -0.0046
 2790TIP3    H229930   5.003   0.840   7.466 -0.3298 -0.1464  0.0627
 2791TIP3   OH229931   4.040   0.033   2.494 -0.6588 -0.2204 -0.3017
 2791TIP3    H129932   4.026   0.032   2.589 -1.1567 -1.1458 -0.3728
 2791TIP3    H229933   3.962   0.074   2.458 -0.2558  0.5768 -0.2933
 2792TIP3   OH229934   0.615   3.709   0.517 -0.3489  0.5318 -0.9634
 2792TIP3    H129935   0.636   3.727   0.608 -1.9372  1.4031 -0.7154
 2792TIP3    H229936   0.610   3.614   0.511  2.8194  0.2563 -0.9397
 2793TIP3   OH229937   1.005   5.005   1.564 -0.1729  0.4480  0.1679
 2793TIP3    H129938   1.024   4.938   1.498  1.7470  1.2475 -0.1370
 2793TIP3    H229939   0.998   5.086   1.514 -2.3705  0.5716  0.5528
 2794TIP3   OH229940   1.813   5.259   1.431 -0.3899 -0.5136  0.4355
 2794TIP3    H129941   1.741   5.201   1.403  0.0466 -1.7184  1.7123
 2794TIP3    H229942   1.892   5.218   1.395 -0.1413 -0.3636  0.8108
 2795TIP3   OH229943   2.308   2.456   8.571 -0.1811 -0.1935  0.1818
 2795TIP3    H129944   2.396   2.469   8.607  0.6138 -0.4008 -1.5706
 2795TIP3    H229945   2.290   2.363   8.584  0.2958 -0.3660 -0.3157
 2796TIP3   OH229946   1.996   5.353   2.063 -0.2724  0.1294 -0.3635
 2796TIP3    H129947   1.910   5.312   2.064 -0.4352  0.4643 -0.3904
 2796TIP3    H229948   2.058   5.281   2.071 -0.5874  0.0529  3.5305
 2797TIP3   OH229949   2.077   4.366   8.506  0.2090 -0.2054 -0.0755
 2797TIP3    H129950   2.135   4.309   8.555 -1.6201 -1.8301  0.3234
 2797TIP3    H229951   2.077   4.448   8.556  2.2886 -0.0596 -0.2354
 2798TIP3   OH229952   2.992   0.264   7.855  0.5710  0.0210 -0.0054
 2798TIP3    H129953   2.987   0.266   7.759 -3.3318 -1.7301 -0.0328
 2798TIP3    H229954   2.960   0.350   7.882 -0.3287 -0.1947 -0.3353
 2799TIP3   OH229955   2.069   6.642   1.830  0.4773  0.1381  0.5198
 2799TIP3    H129956   2.138   6.707   1.821 -0.0113  0.5044 -0.9645
 2799TIP3    H229957   2.102   6.566   1.783 -0.0984  0.3196 -0.2059
 2800TIP3   OH229958   2.839   5.760   7.307  0.3266  0.5608  0.0334
 2800TIP3    H129959   2.759   5.714   7.333  0.7501  0.1319  0.5912
 2800TIP3    H229960   2.857   5.729   7.218  0.1987  0.2119  0.1300
 2801TIP3   OH229961   0.512   6.668   0.871  0.0335 -0.2219  0.1777
 2801TIP3    H129962   0.531   6.596   0.811  1.5908 -0.9210  1.4329
 2801TIP3    H229963   0.591   6.678   0.923 -0.2827  2.1769  0.3109
 2802TIP3   OH229964   1.804   1.127   6.571  0.1119 -0.1956 -0.4805
 2802TIP3    H129965   1.881   1.183   6.577  0.4148 -0.6918  0.6186
 2802TIP3    H229966   1.744   1.175   6.514  1.0783  0.3752 -1.0420
 2803TIP3   OH229967   4.448   1.539   8.217  0.4694 -0.3264  0.1674
 2803TIP3    H129968   4.433   1.632   8.230  0.8019 -0.2042 -0.2938
 2803TIP3    H229969   4.472   1.506   8.303  0.7425  0.0898  0.2521
 2804TIP3   OH229970   3.878   0.500   8.260  0.0576  0.3608 -0.3554
 2804TIP3    H129971   3.963   0.473   8.296  0.8429  1.1333 -1.5713
 2804TIP3    H229972   3.864   0.588   8.295  0.2327  0.6233 -0.9415
 2805TIP3   OH229973   1.585   3.764   2.874  0.1134 -0.5362 -0.2497
 2805TIP3    H129974   1.611   3.856   2.878  1.4422 -0.9305  0.9548
 2805TIP3    H229975   1.502   3.760   2.920  0.0156  0.0659 -0.3643
 2806TIP3   OH229976   3.141   5.454   7.490  0.4420  0.0513  0.4308
 2806TIP3    H129977   3.146   5.546   7.464 -0.6999 -0.0392 -0.2026
 2806TIP3    H229978   3.047   5.435   7.490  0.5825 -0.7874  1.7537
 2807TIP3   OH229979   1.706   4.770   0.977 -0.4252  0.4114  0.0616
 2807TIP3    H129980   1.666   4.853   0.950 -0.6827  0.0905 -0.5619
 2807TIP3    H229981   1.800   4.790   0.985 -0.6524  1.0834  1.2087
 2808TIP3   OH229982   1.447   4.905   0.676  0.0467  0.1346 -0.2773
 2808TIP3    H129983   1.484   4.989   0.650 -0.4661  0.0138 -1.4788
 2808TIP3    H229984   1.435   4.858   0.593  2.7058 -2.1719  0.5101
 2809TIP3   OH229985   3.974   1.754   8.305  0.1347  0.4075  0.1834
 2809TIP3    H129986   3.924   1.708   8.372  0.6436 -0.3604  0.0501
 2809TIP3    H229987   3.919   1.829   8.281 -0.2005  0.5070  1.2137
 2810TIP3   OH229988   3.501   0.736   2.095  0.1284 -0.4387 -0.1135
 2810TIP3    H129989   3.408   0.739   2.118  0.2006  0.4558  0.0828
 2810TIP3    H229990   3.547   0.750   2.178  0.4303 -0.5570 -0.2606
 2811TIP3   OH229991   1.036   0.792   1.180 -0.2965  0.3063  0.0278
 2811TIP3    H129992   0.966   0.777   1.244  0.6579  0.3740  1.1218
 2811TIP3    H229993   1.084   0.709   1.178 -1.1371 -0.1860 -1.6894
 2812TIP3   OH229994   2.636   0.309   8.509 -0.1960 -0.5931 -0.6963
 2812TIP3    H129995   2.541   0.308   8.512 -0.6178 -0.5820 -5.6474
 2812TIP3    H229996   2.658   0.392   8.468  1.6942 -1.6385 -1.9671
 2813TIP3   OH229997   3.866   6.911   7.270 -0.6528 -0.1732 -0.3783
 2813TIP3    H129998   3.884   6.870   7.354  1.4752 -0.2977 -0.8237
 2813TIP3    H229999   3.945   6.963   7.251 -1.7601  1.1902 -1.5314
 2814TIP3   OH230000   3.279   3.087   8.479 -0.0921 -0.2441 -0.7137
 2814TIP3    H130001   3.282   3.077   8.575 -0.3638  0.6798 -0.5967
 2814TIP3    H230002   3.189   3.063   8.456 -0.9305  2.3070 -0.3594
 2815TIP3   OH230003   2.527   1.469   0.993 -0.4574 -0.3481 -0.6051
 2815TIP3    H130004   2.553   1.553   1.032  1.2511 -1.6110  1.1284
 2815TIP3    H230005   2.609   1.422   0.980 -1.1065 -0.7526 -4.2061
 2816TIP3   OH230006   5.874   0.757   8.139  0.1347  0.1270  0.1929
 2816TIP3    H130007   5.831   0.678   8.173  0.4575 -0.1481 -0.0360
 2816TIP3    H230008   5.807   0.825   8.145 -0.3931 -0.3419 -0.3291
 2817TIP3   OH230009   3.428   5.173   8.039 -0.9181  0.5987  0.0065
 2817TIP3    H130010   3.417   5.231   8.114 -1.2521 -0.0368  0.4612
 2817TIP3    H230011   3.344   5.177   7.993 -0.7675  0.8651 -0.2497
 2818TIP3   OH230012   5.465   0.519   1.283 -0.6672  0.2939  0.8388
 2818TIP3    H130013   5.494   0.514   1.192 -2.2785 -0.1683  0.3222
 2818TIP3    H230014   5.370   0.532   1.278 -1.1602 -2.0046  2.4087
 2819TIP3   OH230015   6.380   2.588   2.614 -0.1792 -0.2183 -0.1677
 2819TIP3    H130016   6.365   2.511   2.560  0.1433  1.2005 -2.4296
 2819TIP3    H230017   6.296   2.634   2.613 -0.1098 -0.0809  0.3714
 2820TIP3   OH230018   0.607   0.553   1.521 -0.1381  0.1988 -0.2636
 2820TIP3    H130019   0.596   0.583   1.611 -0.6123  1.4297 -0.7122
 2820TIP3    H230020   0.701   0.537   1.512 -0.1876 -0.7498  0.6841
 2821TIP3   OH230021   0.351   1.706   0.177  0.0548  0.3056 -0.5477
 2821TIP3    H130022   0.339   1.636   0.242  0.2258  0.2461 -0.5783
 2821TIP3    H230023   0.311   1.783   0.217  1.9108  0.7726  0.5216
 2822TIP3   OH230024   5.028   6.698   1.308  0.2363  0.1350  0.1204
 2822TIP3    H130025   4.964   6.735   1.369  0.3033  0.9416 -0.2803
 2822TIP3    H230026   5.100   6.761   1.309  0.1836  0.2294 -0.8806
 2823TIP3   OH230027   0.209   4.524   2.812  0.2202  0.4687 -0.6758
 2823TIP3    H130028   0.162   4.598   2.852  0.5208  1.5583 -2.2405
 2823TIP3    H230029   0.194   4.451   2.872 -1.2109  1.4611  0.2451
 2824TIP3   OH230030   4.568   3.678   2.521 -0.0291  0.2928  0.3314
 2824TIP3    H130031   4.615   3.721   2.593 -1.1057 -0.1673  1.3439
 2824TIP3    H230032   4.490   3.640   2.562 -0.1150 -0.9352 -0.8750
 2825TIP3   OH230033   4.506   6.350   0.219  0.3254  0.1477 -0.3143
 2825TIP3    H130034   4.505   6.259   0.193 -2.0425  0.1161 -0.2898
 2825TIP3    H230035   4.465   6.397   0.147  1.2538  1.1832 -0.2037
 2826TIP3   OH230036   6.888   1.141   7.005 -0.3819  0.3467 -0.0867
 2826TIP3    H130037   6.852   1.132   6.917 -0.0420 -0.4441 -0.1545
 2826TIP3    H230038   6.816   1.174   7.057 -0.9191 -0.2502 -0.4348
 2827TIP3   OH230039   5.568   3.611   0.917  0.5272  0.0695 -0.5753
 2827TIP3    H130040   5.617   3.566   0.848  2.5608 -0.8228  1.3392
 2827TIP3    H230041   5.629   3.675   0.953 -1.2674  2.1551 -1.0790
 2828TIP3   OH230042   0.897   6.053   1.041  0.1928  0.4430  0.1859
 2828TIP3    H130043   0.908   5.986   1.108  2.1260 -1.0668 -1.5267
 2828TIP3    H230044   0.982   6.096   1.035 -0.0554  0.7992 -1.0719
 2829TIP3   OH230045   1.823   2.621   3.320 -0.7641 -0.2236 -0.5225
 2829TIP3    H130046   1.835   2.644   3.227 -1.3244 -1.6119 -0.9715
 2829TIP3    H230047   1.850   2.529   3.325  1.1679  0.3797  1.1284
 2830TIP3   OH230048   1.113   3.064   6.165  1.4909 -0.4038 -0.6524
 2830TIP3    H130049   1.032   3.019   6.141  1.1646  0.8434 -2.0815
 2830TIP3    H230050   1.103   3.084   6.258  0.5675 -1.0686 -0.5903
 2831TIP3   OH230051   3.513   2.971   2.529  0.2777 -0.5484  0.1478
 2831TIP3    H130052   3.460   3.010   2.599 -0.4160 -0.4753 -0.4007
 2831TIP3    H230053   3.521   2.879   2.553  1.4679 -0.1915  1.1755
 2832TIP3   OH230054   6.333   4.922   8.338  0.0675 -0.4335  0.3397
 2832TIP3    H130055   6.326   4.975   8.259  0.5878  0.1874  0.6947
 2832TIP3    H230056   6.278   4.845   8.321 -0.3487  0.0083 -0.3570
 2833TIP3   OH230057   6.481   2.309   7.207  0.2794 -0.7865  0.2274
 2833TIP3    H130058   6.408   2.316   7.268  0.4750  0.6853  0.3199
 2833TIP3    H230059   6.540   2.244   7.246 -0.5970 -1.4118  0.5297
 2834TIP3   OH230060   1.558   1.969   1.772 -0.0058 -0.2182  0.2745
 2834TIP3    H130061   1.511   1.890   1.743 -0.2027 -0.0412  0.1077
 2834TIP3    H230062   1.588   2.010   1.691  1.5561 -0.9958  0.4227
 2835TIP3   OH230063   0.892   4.110   7.708 -0.3994 -0.1658  0.2536
 2835TIP3    H130064   0.812   4.090   7.757 -1.0050  0.8677 -0.2683
 2835TIP3    H230065   0.861   4.152   7.628  0.7084  1.3033  0.5603
 2836TIP3   OH230066   5.053   1.309   0.882  0.0320  0.0483 -0.1368
 2836TIP3    H130067   5.123   1.256   0.845 -0.3443  0.2639 -1.2037
 2836TIP3    H230068   5.042   1.277   0.971  1.9264  0.4538  0.2672
 2837TIP3   OH230069   5.999   0.921   7.862 -0.1697  0.6233  0.5291
 2837TIP3    H130070   5.995   0.920   7.957 -0.2662  0.7561  0.5274
 2837TIP3    H230071   5.989   0.830   7.836  1.6018  0.3232  0.7168
 2838TIP3   OH230072   6.004   5.357   2.587  0.4079  0.0061  0.0386
 2838TIP3    H130073   6.081   5.385   2.637 -0.4439  1.9064  0.3720
 2838TIP3    H230074   5.995   5.264   2.607  0.4803  0.5425  2.9389
 2839TIP3   OH230075   3.445   4.858   0.341  0.0774  0.3110  0.9696
 2839TIP3    H130076   3.415   4.793   0.277 -2.4900  2.2093  0.0366
 2839TIP3    H230077   3.460   4.937   0.289  1.2215  1.0277  2.3122
 2840TIP3   OH230078   0.165   2.239   7.591 -0.3252 -0.4722 -0.0438
 2840TIP3    H130079   0.089   2.288   7.623  1.1094  1.5836  0.4699
 2840TIP3    H230080   0.240   2.287   7.626  1.2552 -1.1214 -2.3034
 2841TIP3   OH230081   2.045   1.504   7.381  0.2927  0.0456  0.0652
 2841TIP3    H130082   2.001   1.581   7.346 -0.0143 -0.4259 -0.5919
 2841TIP3    H230083   2.109   1.480   7.314  0.0719 -0.5404  0.0613
 2842TIP3   OH230084   0.208   4.619   7.774 -0.6936 -0.0898 -0.3763
 2842TIP3    H130085   0.264   4.587   7.845 -0.4788  0.3817 -0.3281
 2842TIP3    H230086   0.266   4.621   7.698 -1.2875 -1.9807 -0.9282
 2843TIP3   OH230087   0.026   0.111   1.396 -0.0719  0.4031  0.1439
 2843TIP3    H130088  -0.052   0.116   1.451 -1.5915 -0.8433 -1.7629
 2843TIP3    H230089   0.077   0.188   1.419 -1.7391  1.1044  1.6547
 2844TIP3   OH230090   6.527   3.129   1.827  0.5444 -0.0087 -0.2097
 2844TIP3    H130091   6.558   3.215   1.856  1.5891 -0.3215 -0.3710
 2844TIP3    H230092   6.567   3.067   1.888 -0.2173 -0.3936 -0.0866
 2845TIP3   OH230093   1.450   1.059   6.541  0.2906 -0.3511  0.2694
 2845TIP3    H130094   1.412   0.976   6.568  0.5946  0.2660  2.8947
 2845TIP3    H230095   1.447   1.113   6.620  1.6924  1.5462 -0.8901
 2846TIP3   OH230096   6.629   6.262   1.641 -0.1973 -0.2546 -0.2042
 2846TIP3    H130097   6.572   6.338   1.631 -0.3244 -0.2663  0.4071
 2846TIP3    H230098   6.681   6.281   1.719 -0.3802 -0.8953  0.0742
 2847TIP3   OH230099   0.505   0.373   7.736  0.0175  0.0795 -0.1196
 2847TIP3    H130100   0.513   0.455   7.785 -1.4126  0.3740 -0.3284
 2847TIP3    H230101   0.455   0.397   7.658 -0.0902 -0.9281 -0.3755
 2848TIP3   OH230102   5.143   6.878   6.939  0.4929 -0.4246 -0.3853
 2848TIP3    H130103   5.105   6.923   7.014 -0.1538  0.1119 -1.0291
 2848TIP3    H230104   5.105   6.921   6.863 -0.6945 -2.4982 -1.0363
 2849TIP3   OH230105   4.738   4.786   8.412 -0.1981  0.1568 -0.1558
 2849TIP3    H130106   4.662   4.741   8.448  0.0956 -1.1372 -1.0854
 2849TIP3    H230107   4.708   4.875   8.398 -0.8179  0.2937  1.6782
 2850TIP3   OH230108   2.762   4.853   0.641 -0.4929 -0.0869 -0.3424
 2850TIP3    H130109   2.699   4.891   0.702  0.7707  1.4822  0.0768
 2850TIP3    H230110   2.759   4.910   0.565  0.9742  0.5461  0.0263
 2851TIP3   OH230111   2.041   4.403   8.246  0.6768  0.4973 -0.2542
 2851TIP3    H130112   1.959   4.452   8.253  0.1123 -0.4001 -0.2726
 2851TIP3    H230113   2.060   4.376   8.336  1.3188  1.2749 -0.1564
 2852TIP3   OH230114   3.159   5.180   7.911  0.3919  0.0427 -0.0554
 2852TIP3    H130115   3.142   5.201   8.003  1.0382 -2.2186  0.6524
 2852TIP3    H230116   3.188   5.262   7.872 -1.0689  1.3285  1.4509
 2853TIP3   OH230117   2.398   0.700   0.868 -0.4525  0.1783  0.6172
 2853TIP3    H130118   2.477   0.719   0.918  1.4060 -1.5072 -1.4659
 2853TIP3    H230119   2.422   0.719   0.777 -3.2407  1.8119  0.1298
 2854TIP3   OH230120   5.392   0.479   2.582 -0.4508 -0.0421  0.4977
 2854TIP3    H130121   5.426   0.547   2.524  0.6444 -0.2848  0.8160
 2854TIP3    H230122   5.456   0.475   2.653 -0.8559 -0.9364  0.8288
 2855TIP3   OH230123   6.626   2.483   7.379  0.2309 -0.5583  0.1074
 2855TIP3    H130124   6.552   2.449   7.329 -0.7543  0.5387  0.7769
 2855TIP3    H230125   6.586   2.533   7.450  1.6177  0.1192  0.4459
 2856TIP3   OH230126   3.336   3.117   1.600 -0.1413  0.1809 -0.2704
 2856TIP3    H130127   3.317   3.028   1.573  0.6962 -0.2448  0.4883
 2856TIP3    H230128   3.259   3.144   1.650 -0.4479 -0.0731 -0.6091
 2857TIP3   OH230129   1.793   5.043   0.799  0.1509  0.2413  0.0896
 2857TIP3    H130130   1.730   5.112   0.779 -1.1467 -0.7217  0.6737
 2857TIP3    H230131   1.876   5.076   0.767 -1.0593  0.4700 -3.2070
 2858TIP3   OH230132   3.761   0.889   1.040 -0.1872 -0.3676 -0.0723
 2858TIP3    H130133   3.744   0.804   1.080 -2.1340 -1.3212 -2.6275
 2858TIP3    H230134   3.856   0.892   1.029 -0.1502 -2.7811 -0.9832
 2859TIP3   OH230135   5.337   3.292   1.670  0.1178  0.7711  0.2462
 2859TIP3    H130136   5.431   3.279   1.656  0.2845  0.3715  1.6256
 2859TIP3    H230137   5.310   3.345   1.595  0.9369 -1.1215 -1.4787
 2860TIP3   OH230138   6.072   4.826   8.529  0.5545  0.3817 -0.3048
 2860TIP3    H130139   6.136   4.765   8.492 -1.4807 -2.7082  0.8547
 2860TIP3    H230140   6.000   4.825   8.466 -0.0190  0.6154  0.3427
 2861TIP3   OH230141   4.617   1.764   7.887 -0.2024 -0.1005 -0.2104
 2861TIP3    H130142   4.658   1.688   7.846  1.5359  1.3004 -1.2120
 2861TIP3    H230143   4.537   1.730   7.928  0.8160 -2.5335 -0.1356
 2862TIP3   OH230144   0.722   2.567   8.348  0.1678  0.2527 -0.2796
 2862TIP3    H130145   0.782   2.497   8.373 -2.0528 -1.4167  0.7610
 2862TIP3    H230146   0.770   2.617   8.282  1.8320 -2.3418 -1.2186
 2863TIP3   OH230147   3.166   0.481   1.462  0.0735 -0.5361 -0.0504
 2863TIP3    H130148   3.110   0.509   1.534  0.7336 -0.5681  0.4900
 2863TIP3    H230149   3.251   0.465   1.503 -0.3144 -3.7088 -0.2223
 2864TIP3   OH230150   1.145   2.148   6.803  0.4494  0.2441  0.2966
 2864TIP3    H130151   1.058   2.110   6.791 -0.0908  1.1679  1.1273
 2864TIP3    H230152   1.160   2.200   6.724 -0.3711  1.2298  0.7788
 2865TIP3   OH230153   4.347   2.663   0.213  0.2845 -0.1157  0.2685
 2865TIP3    H130154   4.373   2.604   0.142  1.2418  0.4167  0.1535
 2865TIP3    H230155   4.428   2.677   0.263 -0.1525  0.3276  0.8649
 2866TIP3   OH230156   6.216   2.846   2.323 -0.1586  0.1940  0.6312
 2866TIP3    H130157   6.126   2.859   2.294  0.0778  1.2614  0.3139
 2866TIP3    H230158   6.210   2.779   2.390 -0.9706 -0.9708 -0.5577
 2867TIP3   OH230159   2.100   0.447   2.371 -0.0988  0.0841  0.3324
 2867TIP3    H130160   2.176   0.503   2.386 -0.0969  0.2727 -0.3326
 2867TIP3    H230161   2.135   0.370   2.328 -0.1529 -0.2724  0.9192
 2868TIP3   OH230162   0.140   5.910   1.653 -0.4166  0.1176  0.1627
 2868TIP3    H130163   0.129   5.827   1.606  1.1823 -0.5378  0.8838
 2868TIP3    H230164   0.108   5.892   1.741  0.7075 -0.0044  0.5580
 2869TIP3   OH230165   6.293   5.039   0.870  0.1720 -0.3049 -0.2783
 2869TIP3    H130166   6.312   5.016   0.961 -0.3601 -0.9843 -0.3293
 2869TIP3    H230167   6.339   4.973   0.819 -0.4843 -0.6400 -0.4573
 2870TIP3   OH230168   1.311   0.117   6.685 -0.1592  0.1504 -0.1653
 2870TIP3    H130169   1.325   0.079   6.772  2.1468 -1.2805 -1.0464
 2870TIP3    H230170   1.230   0.076   6.654 -0.6531  0.1735  1.0185
 2871TIP3   OH230171   2.959   1.844   0.382 -0.6929 -0.3144 -0.3853
 2871TIP3    H130172   2.990   1.935   0.382  1.3406 -0.9323  1.1107
 2871TIP3    H230173   3.013   1.801   0.316 -2.0054 -0.3664 -1.4556
 2872TIP3   OH230174   6.663   4.588   2.657  0.1614  0.2038  0.5115
 2872TIP3    H130175   6.598   4.534   2.612  0.8934 -1.4729  1.3915
 2872TIP3    H230176   6.658   4.673   2.613 -1.2033 -0.4857 -0.7537
 2873TIP3   OH230177   3.973   4.442   1.981  0.2904 -0.2120  0.2874
 2873TIP3    H130178   4.039   4.383   1.946 -0.2014 -0.5988  0.0104
 2873TIP3    H230179   4.015   4.481   2.058  1.3436  0.5801 -0.6575
 2874TIP3   OH230180   5.340   2.098   2.273 -0.6396 -0.2179  1.0661
 2874TIP3    H130181   5.263   2.099   2.216 -0.4580  1.1282  0.8033
 2874TIP3    H230182   5.366   2.006   2.275 -0.3243 -0.2796 -1.4891
 2875TIP3   OH230183   0.573   6.028   0.796  0.1766  0.2093  0.3398
 2875TIP3    H130184   0.646   6.089   0.782 -0.5067  0.6659 -1.4823
 2875TIP3    H230185   0.569   6.018   0.891  2.0470  0.8623  0.5363
 2876TIP3   OH230186   2.025   6.505   8.242  0.2046  0.0346 -0.2409
 2876TIP3    H130187   2.111   6.543   8.258  0.1909 -0.0469  0.0315
 2876TIP3    H230188   1.973   6.528   8.319  0.5550 -1.5573  0.5226
 2877TIP3   OH230189   6.801   2.263   7.301 -0.7405  0.2756  0.5619
 2877TIP3    H130190   6.739   2.289   7.368 -0.4764 -1.4201  1.5185
 2877TIP3    H230191   6.822   2.172   7.321  0.8109  0.3024 -0.6931
 2878TIP3   OH230192   5.679   1.847   1.071  0.0486  0.0180  0.1251
 2878TIP3    H130193   5.669   1.764   1.024  2.2444  0.2151 -0.7639
 2878TIP3    H230194   5.600   1.897   1.048 -1.0055 -1.5518  0.1741
 2879TIP3   OH230195   0.709   3.445   1.586 -0.7913 -1.0168 -0.2853
 2879TIP3    H130196   0.730   3.412   1.499 -0.0295 -0.4199 -0.3396
 2879TIP3    H230197   0.777   3.409   1.643  1.2330  1.8635 -0.6550
 2880TIP3   OH230198   6.478   1.170   0.466 -0.3703 -0.0706  0.1660
 2880TIP3    H130199   6.396   1.129   0.437  0.1755 -0.5929 -0.6687
 2880TIP3    H230200   6.479   1.255   0.422  0.9823 -1.2917 -2.3661
 2881TIP3   OH230201   3.949   5.812   0.237  0.0229 -0.0102  0.0452
 2881TIP3    H130202   3.919   5.765   0.315  3.2505  1.3619  2.3297
 2881TIP3    H230203   3.973   5.742   0.175 -2.6886 -1.1244  0.1429
 2882TIP3   OH230204   2.459   3.741   7.203  0.6437  0.1745 -0.7100
 2882TIP3    H130205   2.375   3.763   7.243  0.9906  0.1491  0.0545
 2882TIP3    H230206   2.451   3.770   7.112 -0.3996 -0.3729 -0.8053
 2883TIP3   OH230207   3.270   2.826   0.117 -0.0521  0.0209 -0.0796
 2883TIP3    H130208   3.320   2.902   0.148 -0.0737  0.3902 -0.9180
 2883TIP3    H230209   3.185   2.863   0.093  0.5177  0.0815 -2.1914
 2884TIP3   OH230210   4.316   2.522   7.625  0.2689  0.2580 -0.5746
 2884TIP3    H130211   4.276   2.515   7.538  0.5652  2.1597 -0.9154
 2884TIP3    H230212   4.409   2.531   7.607  0.5945 -1.6029  0.0816
 2885TIP3   OH230213   3.049   6.134   7.542 -0.0335 -0.1025  0.6554
 2885TIP3    H130214   3.082   6.132   7.452 -1.2472  1.1313  0.1348
 2885TIP3    H230215   2.956   6.111   7.534 -0.4793  1.2946  1.3859
 2886TIP3   OH230216   2.722   0.980   8.424  0.0753 -0.3423  0.2618
 2886TIP3    H130217   2.767   1.063   8.438  0.1981 -0.7649  2.8234
 2886TIP3    H230218   2.749   0.926   8.498 -1.8524 -1.8558 -0.0740
 2887TIP3   OH230219   0.736   5.884   2.133  0.5029  0.0782 -0.8261
 2887TIP3    H130220   0.660   5.912   2.082 -0.3941  1.7304  1.2675
 2887TIP3    H230221   0.801   5.954   2.120  0.1808  0.6243  0.4378
 2888TIP3   OH230222   0.393   5.480   7.884 -0.0521  0.3057 -0.3373
 2888TIP3    H130223   0.402   5.403   7.828  0.2998 -0.1301  0.3082
 2888TIP3    H230224   0.354   5.547   7.827 -1.7915 -0.7969 -0.5213
 2889TIP3   OH230225   2.301   6.445   8.439 -0.1764 -0.2380 -0.6667
 2889TIP3    H130226   2.344   6.435   8.523 -0.2651  1.2297 -0.4075
 2889TIP3    H230227   2.331   6.371   8.386  0.1606 -0.9669  0.5250
 2890TIP3   OH230228   5.022   4.191   7.259  0.2705  0.0467  0.0427
 2890TIP3    H130229   4.926   4.193   7.266  0.1606  1.0773 -1.2639
 2890TIP3    H230230   5.042   4.262   7.198  1.3802 -3.5553 -4.3687
 2891TIP3   OH230231   6.408   2.026   1.840  0.1568  0.0461  0.0955
 2891TIP3    H130232   6.326   2.062   1.808 -0.1925  0.6800  1.6447
 2891TIP3    H230233   6.467   2.102   1.845 -0.0248  0.1159  1.6139
 2892TIP3   OH230234   5.730   5.609   1.549 -0.1043  0.4148 -0.3654
 2892TIP3    H130235   5.806   5.580   1.600 -0.1811 -0.6774 -0.8293
 2892TIP3    H230236   5.767   5.666   1.481  0.2738  0.1160 -0.4160
 2893TIP3   OH230237   3.430   2.037   8.413  0.5231 -0.6327  0.2741
 2893TIP3    H130238   3.342   1.999   8.405 -0.8430  2.4839 -1.3037
 2893TIP3    H230239   3.463   2.004   8.497 -2.8684 -0.6621  1.7657
 2894TIP3   OH230240   6.736   6.085   8.253 -0.1256 -0.5175  0.2169
 2894TIP3    H130241   6.759   6.012   8.310  1.2765 -0.2247  0.0562
 2894TIP3    H230242   6.790   6.073   8.175  0.1433  0.6882  0.1963
 2895TIP3   OH230243   6.874   6.038   7.249 -0.0757 -0.2952 -0.7652
 2895TIP3    H130244   6.901   6.035   7.341 -2.2701 -0.2315 -0.0652
 2895TIP3    H230245   6.919   6.115   7.214 -0.6628  0.8125  0.7838
 2896TIP3   OH230246   3.984   3.954   0.588 -0.5046 -0.7426  0.0797
 2896TIP3    H130247   3.925   3.999   0.528  0.1489 -2.1173 -1.6964
 2896TIP3    H230248   3.952   3.976   0.675 -0.5704  2.5977 -0.6588
 2897TIP3   OH230249   5.706   5.934   1.231  0.0467 -0.4794 -0.3866
 2897TIP3    H130250   5.740   5.996   1.295  0.2766  1.1730 -2.0181
 2897TIP3    H230251   5.627   5.898   1.272 -0.1384  0.9622  0.5782
 2898TIP3   OH230252   1.811   4.504   2.240 -0.1178  0.1035 -0.7342
 2898TIP3    H130253   1.879   4.442   2.214  0.2632  0.3299 -0.3049
 2898TIP3    H230254   1.731   4.452   2.246  0.2319 -0.3810 -0.2068
 2899TIP3   OH230255   0.167   4.742   1.290  0.7447 -0.0890  0.0077
 2899TIP3    H130256   0.125   4.792   1.359  0.7892  1.0435 -0.7579
 2899TIP3    H230257   0.110   4.665   1.277 -1.2058  1.4501 -1.0913
 2900TIP3   OH230258   6.605   4.922   1.937  0.0522  0.5052 -0.3959
 2900TIP3    H130259   6.648   4.930   2.022  2.1503  2.4660 -1.5350
 2900TIP3    H230260   6.644   4.845   1.898  0.7034  0.8370 -0.4169
 2901TIP3   OH230261   1.223   6.280   7.514  0.0897  0.3099 -0.1315
 2901TIP3    H130262   1.217   6.187   7.535  1.3781 -0.4207 -2.6337
 2901TIP3    H230263   1.311   6.305   7.542  1.0584 -0.1743 -2.4912
 2902TIP3   OH230264   2.619   2.682   2.791 -0.2807 -0.5040  0.3418
 2902TIP3    H130265   2.591   2.722   2.873 -1.0920 -2.0120  0.8398
 2902TIP3    H230266   2.695   2.629   2.814 -0.4166 -0.8129  0.1047
 2903TIP3   OH230267   0.478   5.110   1.625  0.2338 -0.4274 -0.1811
 2903TIP3    H130268   0.505   5.056   1.699 -1.1786 -0.8256  0.0540
 2903TIP3    H230269   0.560   5.128   1.579  0.9661 -1.2664  0.7372
 2904TIP3   OH230270   3.765   4.017   1.530 -0.0345 -0.1121  0.3018
 2904TIP3    H130271   3.681   3.992   1.491  0.2408  0.6739 -0.8459
 2904TIP3    H230272   3.790   4.098   1.484  1.7404 -0.7715  0.0309
 2905TIP3   OH230273   2.004   2.566   7.129  0.3424  0.1607  0.6828
 2905TIP3    H130274   2.016   2.476   7.098 -2.4190 -1.0425  2.6938
 2905TIP3    H230275   2.071   2.577   7.196  1.8181  0.2775 -0.7650
 2906TIP3   OH230276   2.360   3.959   0.155 -0.6225 -0.2728 -0.1100
 2906TIP3    H130277   2.454   3.939   0.160 -0.0067  2.3977  0.3357
 2906TIP3    H230278   2.321   3.906   0.224  0.5702 -1.1849 -0.0839
 2907TIP3   OH230279   0.353   6.218   0.290  0.0418  0.1286  0.3143
 2907TIP3    H130280   0.307   6.226   0.374 -1.2829 -0.5648 -0.3114
 2907TIP3    H230281   0.380   6.307   0.268 -0.9203  0.5446  0.7622
 2908TIP3   OH230282   4.088   4.967   7.667  0.3317  0.1472  0.1026
 2908TIP3    H130283   4.126   4.937   7.750  2.5227 -0.2846 -0.9736
 2908TIP3    H230284   3.998   4.989   7.689  0.5727 -0.7991  2.4055
 2909TIP3   OH230285   1.140   1.190   7.537  0.6488 -0.0886  0.1051
 2909TIP3    H130286   1.108   1.254   7.600 -0.2981  0.5927 -1.0370
 2909TIP3    H230287   1.235   1.192   7.547  0.6321  1.5244  0.0744
 2910TIP3   OH230288   5.589   0.924   7.406  0.0301 -0.3632 -0.4574
 2910TIP3    H130289   5.507   0.966   7.430  0.1486  0.7136 -1.8423
 2910TIP3    H230290   5.568   0.830   7.403 -0.8023 -0.2196  0.4399
 2911TIP3   OH230291   4.338   6.602   8.275 -0.2490  0.0776 -0.5851
 2911TIP3    H130292   4.425   6.642   8.282  0.2027 -0.9920  0.0634
 2911TIP3    H230293   4.301   6.610   8.363 -0.1160 -1.0010 -0.4243
 2912TIP3   OH230294   3.355   5.996   7.484  0.0894 -0.6694 -0.0834
 2912TIP3    H130295   3.286   6.031   7.427  1.2776  1.1778 -0.4540
 2912TIP3    H230296   3.384   5.917   7.438  0.6828  0.5124 -1.8497
 2913TIP3   OH230297   4.870   4.741   2.400 -0.4788 -0.5058 -0.7950
 2913TIP3    H130298   4.876   4.660   2.350  0.7324 -1.9459  1.5278
 2913TIP3    H230299   4.829   4.715   2.482  0.4817  1.1277  0.2441
 2914TIP3   OH230300   6.527   1.316   7.349  0.4429 -0.2386 -0.0509
 2914TIP3    H130301   6.583   1.382   7.389  1.6707 -0.8724 -0.6996
 2914TIP3    H230302   6.481   1.276   7.423  1.3183 -0.1446  0.5584
 2915TIP3   OH230303   3.520   6.618   1.830  0.0907 -0.4700 -0.7068
 2915TIP3    H130304   3.556   6.542   1.784  1.8860 -0.1005 -0.0008
 2915TIP3    H230305   3.513   6.590   1.922  1.6537  0.4711 -0.2671
 2916TIP3   OH230306   1.369   3.997   1.979 -0.2578  0.1934  0.1508
 2916TIP3    H130307   1.443   3.966   1.927 -0.0292  2.3027 -0.9147
 2916TIP3    H230308   1.335   3.919   2.022  2.1877 -0.9490  0.1849
 2917TIP3   OH230309   5.857   2.199   1.381 -0.3927 -0.0477  0.1547
 2917TIP3    H130310   5.810   2.122   1.351 -0.7103  0.0669  0.3476
 2917TIP3    H230311   5.949   2.180   1.362 -0.4988 -0.3433 -0.0735
 2918TIP3   OH230312   0.715   4.289   6.868  0.0727  0.3591 -0.3560
 2918TIP3    H130313   0.664   4.359   6.909 -1.5081  0.3815 -2.2009
 2918TIP3    H230314   0.666   4.209   6.888  0.7824  0.0246  0.0720
 2919TIP3   OH230315   5.732   4.481   0.391  0.2230  0.0169 -0.0276
 2919TIP3    H130316   5.641   4.495   0.363 -0.2397 -3.2397 -0.6297
 2919TIP3    H230317   5.764   4.413   0.331  2.4315 -0.2759  1.3991
 2920TIP3   OH230318   1.454   3.419   2.038 -0.2998  0.3842  0.3106
 2920TIP3    H130319   1.360   3.402   2.050  0.0569 -1.1538  1.2610
 2920TIP3    H230320   1.458   3.483   1.967 -1.9731 -1.6602 -1.7956
 2921TIP3   OH230321   0.724   4.788   0.528  0.6944 -0.0349 -0.4916
 2921TIP3    H130322   0.671   4.824   0.599  1.1588  1.0998 -0.6966
 2921TIP3    H230323   0.812   4.824   0.544  1.2248 -1.2508 -0.6013
 2922TIP3   OH230324   3.296   3.867   7.201  0.2860  0.2134  0.5371
 2922TIP3    H130325   3.286   3.804   7.129  0.2512  0.0364  0.6977
 2922TIP3    H230326   3.215   3.858   7.252  0.7785 -0.4457  1.2222
 2923TIP3   OH230327   6.751   0.271   0.582 -0.1725  0.6329 -0.0144
 2923TIP3    H130328   6.807   0.279   0.659  0.0708 -0.6406 -0.0394
 2923TIP3    H230329   6.803   0.308   0.510 -0.5681  2.2338  0.4614
 2924TIP3   OH230330   4.750   1.440   0.175  0.3998  0.8879 -0.0312
 2924TIP3    H130331   4.760   1.410   0.084 -1.6707  2.3534 -0.8029
 2924TIP3    H230332   4.811   1.384   0.225  0.4924 -0.9849 -2.0712
 2925TIP3   OH230333   1.810   0.949   1.593 -0.4254 -0.0824 -0.2230
 2925TIP3    H130334   1.816   0.887   1.520  0.4710  1.0071 -1.1316
 2925TIP3    H230335   1.893   0.996   1.591 -1.2258  1.4272  0.1485
 2926TIP3   OH230336   1.692   1.556   0.790 -0.6809  0.3624  0.0184
 2926TIP3    H130337   1.622   1.494   0.807  0.5033 -0.4876  2.1918
 2926TIP3    H230338   1.698   1.608   0.870  0.7100  0.8935 -0.3966
 2927TIP3   OH230339   2.459   2.668   7.960 -0.7646  0.2654 -0.5407
 2927TIP3    H130340   2.494   2.684   7.873 -1.0058  0.6873 -0.5632
 2927TIP3    H230341   2.527   2.699   8.020 -0.8462  0.5377 -0.5839
 2928TIP3   OH230342   5.504   0.515   8.082  1.0610  0.0085  0.5383
 2928TIP3    H130343   5.579   0.536   8.026  1.3581  0.0898  0.9607
 2928TIP3    H230344   5.461   0.442   8.038  1.3868 -0.0394  0.2941
 2929TIP3   OH230345   2.737   2.865   2.137 -0.0347  0.6484  0.1158
 2929TIP3    H130346   2.652   2.894   2.170 -1.1801 -0.2025 -1.8853
 2929TIP3    H230347   2.728   2.770   2.130  1.1236  0.5383 -0.0373
 2930TIP3   OH230348   1.936   1.576   0.134 -0.2329  0.6587 -0.3130
 2930TIP3    H130349   1.948   1.517   0.209 -0.9216 -2.0981 -2.2005
 2930TIP3    H230350   1.877   1.644   0.165 -0.2558 -0.2374  1.7094
 2931TIP3   OH230351   5.820   1.386   1.976  0.1246 -0.4803  0.4874
 2931TIP3    H130352   5.916   1.386   1.984  0.1254  1.5230  1.1472
 2931TIP3    H230353   5.788   1.378   2.065 -0.2359  1.5733  0.5877
 2932TIP3   OH230354   3.324   6.876   8.183 -0.2079 -0.0152  0.6466
 2932TIP3    H130355   3.338   6.851   8.092  1.5470 -0.0564  0.9045
 2932TIP3    H230356   3.288   6.797   8.224 -2.2828  0.3895 -0.2446
 2933TIP3   OH230357   3.976   2.134   0.641  0.6445 -0.3943 -0.2977
 2933TIP3    H130358   4.010   2.188   0.569  1.7390  0.3891  0.7804
 2933TIP3    H230359   3.881   2.131   0.626  0.7435  0.5720 -1.2202
 2934TIP3   OH230360   1.129   4.141   2.664  1.1297 -0.1328 -0.4837
 2934TIP3    H130361   1.116   4.080   2.592  1.6880  0.7995 -1.4111
 2934TIP3    H230362   1.079   4.104   2.737  1.2151 -1.5225 -1.0997
 2935TIP3   OH230363   1.113   6.066   7.668  0.0031 -0.8644 -0.3370
 2935TIP3    H130364   1.150   6.124   7.735  0.5635 -0.0520 -1.3123
 2935TIP3    H230365   1.173   5.992   7.665 -0.2153 -1.0718  0.2933
 2936TIP3   OH230366   5.651   3.468   0.693  0.5188  0.5879  0.3047
 2936TIP3    H130367   5.594   3.417   0.751  1.1661 -0.0498  0.3916
 2936TIP3    H230368   5.682   3.404   0.629  0.7631  1.0359 -0.0264
 2937TIP3   OH230369   1.291   1.767   8.271  0.0890  0.6334 -0.1413
 2937TIP3    H130370   1.246   1.742   8.352  1.5775 -1.1027  0.2227
 2937TIP3    H230371   1.362   1.824   8.300  1.3926 -0.9828 -0.0024
 2938TIP3   OH230372   6.234   1.741   1.771 -0.7941 -0.4073 -0.4808
 2938TIP3    H130373   6.175   1.767   1.841 -1.1637 -0.6900 -0.6829
 2938TIP3    H230374   6.288   1.672   1.809 -0.9736 -0.5386 -0.4595
 2939TIP3   OH230375   3.206   5.163   0.527  0.1469 -0.8280  0.3742
 2939TIP3    H130376   3.277   5.101   0.542  0.8797 -1.4362 -4.1906
 2939TIP3    H230377   3.249   5.249   0.528  0.1752 -0.8453  1.3626
 2940TIP3   OH230378   0.249   6.230   0.531 -0.1971 -0.3668  0.6543
 2940TIP3    H130379   0.309   6.156   0.540 -0.2338 -0.6256 -0.9604
 2940TIP3    H230380   0.166   6.198   0.566 -0.1688 -1.0434  0.1174
 2941TIP3   OH230381   3.807   4.332   0.263  0.5278 -0.2268 -0.2798
 2941TIP3    H130382   3.754   4.405   0.231  0.1307 -0.1881  0.4401
 2941TIP3    H230383   3.896   4.367   0.264  0.2166  0.6338  1.0525
 2942TIP3   OH230384   0.102   6.159   1.316 -0.1026 -0.1577 -0.3986
 2942TIP3    H130385   0.119   6.067   1.339 -1.7360 -1.0460 -2.4024
 2942TIP3    H230386   0.018   6.179   1.356  0.1233  0.3977 -0.1919
 2943TIP3   OH230387   0.824   0.665   2.116  0.4124  0.6998  0.0741
 2943TIP3    H130388   0.762   0.729   2.081 -0.7426 -0.8058 -0.7801
 2943TIP3    H230389   0.900   0.671   2.057  0.3187  1.2771  0.0057
 2944TIP3   OH230390   4.359   4.664   7.350 -0.3243  0.5036 -0.3922
 2944TIP3    H130391   4.296   4.729   7.381 -0.7961 -0.1250 -0.0107
 2944TIP3    H230392   4.400   4.630   7.429 -1.5830 -1.1628 -0.3786
 2945TIP3   OH230393   3.957   6.141   8.235 -0.6006  0.2581 -0.6599
 2945TIP3    H130394   4.037   6.102   8.200  0.0319 -0.8563  1.8211
 2945TIP3    H230395   3.978   6.234   8.246  1.5246 -0.4436  2.6320
 2946TIP3   OH230396   2.584   6.527   0.024  0.7230  0.2287  0.1634
 2946TIP3    H130397   2.626   6.531  -0.062  0.5970  0.1866  0.1001
 2946TIP3    H230398   2.640   6.468   0.075 -1.2132 -2.8386 -1.0020
 2947TIP3   OH230399   4.142   0.618   3.050 -0.2261  0.0003 -0.1157
 2947TIP3    H130400   4.117   0.526   3.035  1.7751 -0.4366 -1.1891
 2947TIP3    H230401   4.218   0.631   2.993  0.7027  1.7794  1.4291
 2948TIP3   OH230402   6.298   6.520   1.413  0.4956  0.3287  0.2549
 2948TIP3    H130403   6.314   6.434   1.374 -0.1937 -0.3665  1.4354
 2948TIP3    H230404   6.204   6.522   1.428  0.6216  0.9515  1.0020
 2949TIP3   OH230405   2.641   6.130   7.484  0.2799  0.0141  0.2873
 2949TIP3    H130406   2.583   6.125   7.408 -0.5386  1.2034  0.7947
 2949TIP3    H230407   2.725   6.098   7.452  0.0817  0.9141 -1.2409
 2950TIP3   OH230408   3.757   1.681   8.542 -0.1849 -0.0390 -0.5739
 2950TIP3    H130409   3.683   1.678   8.482  0.1895 -1.4152 -1.0195
 2950TIP3    H230410   3.726   1.636   8.621 -0.5040  1.3003  0.1002
 2951TIP3   OH230411   3.256   0.694   2.216  0.4655 -0.2182  0.0173
 2951TIP3    H130412   3.322   0.707   2.285  0.2765 -1.4232  0.4390
 2951TIP3    H230413   3.256   0.600   2.200 -1.9892 -0.4348  0.8644
 2952TIP3   OH230414   2.549   1.468   8.152  0.3631  0.5097  0.3350
 2952TIP3    H130415   2.471   1.415   8.165  0.9678 -0.0110  1.9757
 2952TIP3    H230416   2.577   1.449   8.062 -0.3104 -0.7413  0.3834
 2953TIP3   OH230417   1.703   2.043   8.259  0.1451 -0.6871  0.1265
 2953TIP3    H130418   1.788   2.028   8.300  0.5069  1.6714  0.3993
 2953TIP3    H230419   1.710   2.003   8.172  1.4754 -0.6975  0.2232
 2954TIP3   OH230420   0.186   2.436   6.706 -0.1794  0.3170  0.9668
 2954TIP3    H130421   0.201   2.530   6.721  1.2341  0.4442 -0.9446
 2954TIP3    H230422   0.216   2.394   6.786  0.3135  1.4245  1.3841
 2955TIP3   OH230423   2.928   0.828   8.019 -0.0837  0.5503 -0.4027
 2955TIP3    H130424   2.878   0.758   7.976 -1.3728  1.6837 -0.8230
 2955TIP3    H230425   3.019   0.801   8.011 -0.5162 -0.8207 -1.0226
 2956TIP3   OH230426   1.627   6.050   1.926 -0.2858  0.2008  0.1669
 2956TIP3    H130427   1.722   6.060   1.919 -0.1466 -1.7152 -1.8372
 2956TIP3    H230428   1.615   5.979   1.989 -0.2433 -0.9660 -1.0979
 2957TIP3   OH230429   3.440   0.966   2.511 -0.0241  0.3262  0.9497
 2957TIP3    H130430   3.409   1.042   2.561  0.6485  0.5360  1.0534
 2957TIP3    H230431   3.360   0.922   2.482 -0.4214  1.5802  0.1026
 2958TIP3   OH230432   4.345   1.016   8.008 -0.7006  0.4390  0.6459
 2958TIP3    H130433   4.392   0.954   8.064 -2.0861 -0.0708  1.3085
 2958TIP3    H230434   4.410   1.082   7.985  0.6783 -0.9636  0.3672
 2959TIP3   OH230435   1.536   3.849   7.885  0.0019 -0.3493  0.2000
 2959TIP3    H130436   1.470   3.782   7.901  0.0733 -0.1680  1.3225
 2959TIP3    H230437   1.512   3.921   7.943  0.4251  0.2453 -0.3592
 2960TIP3   OH230438   0.266   0.068   1.826 -0.2579 -0.6173  0.0179
 2960TIP3    H130439   0.228   0.106   1.747 -0.8983  1.5971  1.3211
 2960TIP3    H230440   0.361   0.079   1.814 -0.3100 -0.8640 -0.6848
 2961TIP3   OH230441   2.677   1.501   3.025  0.1492 -0.1165  0.0329
 2961TIP3    H130442   2.606   1.510   3.089  0.1344 -0.2223  0.0316
 2961TIP3    H230443   2.716   1.589   3.020  0.5088 -0.2426  0.5952
 2962TIP3   OH230444   6.537   4.207   7.893  0.0153 -0.5497 -0.0525
 2962TIP3    H130445   6.443   4.206   7.876 -0.0932 -0.9816  0.5427
 2962TIP3    H230446   6.544   4.193   7.988  0.6586  0.0425 -0.0075
 2963TIP3   OH230447   4.855   4.436   7.955 -0.1956 -0.3636  1.0045
 2963TIP3    H130448   4.846   4.487   7.874  0.1243 -0.7595  0.7174
 2963TIP3    H230449   4.827   4.348   7.931 -2.7223  0.0833  1.9891
 2964TIP3   OH230450   2.311   5.997   0.857 -0.4470 -0.3495  0.5374
 2964TIP3    H130451   2.359   6.058   0.914 -0.0860  0.8057 -0.9479
 2964TIP3    H230452   2.296   5.920   0.912  1.2790  0.0850  1.7077
 2965TIP3   OH230453   1.420   6.574   1.894 -0.1996 -0.0763  0.0457
 2965TIP3    H130454   1.503   6.555   1.852 -0.0859 -0.0064  0.2382
 2965TIP3    H230455   1.359   6.509   1.858  0.6192 -2.1591  2.1542
 2966TIP3   OH230456   4.887   3.080   1.008  0.2796  0.1522 -0.1294
 2966TIP3    H130457   4.905   3.170   0.981  1.6186  0.4778  1.6552
 2966TIP3    H230458   4.862   3.088   1.100 -0.5487 -1.2328 -0.2119
 2967TIP3   OH230459   1.049   0.690   7.683  0.3969 -0.4758  0.0458
 2967TIP3    H130460   1.021   0.725   7.599 -0.4126 -0.3675  0.3560
 2967TIP3    H230461   1.012   0.601   7.687 -0.2101 -0.2077  0.6023
 2968TIP3   OH230462   0.479   6.832   3.161 -0.4465 -0.8987  0.6111
 2968TIP3    H130463   0.422   6.825   3.085  0.6691  1.9155 -0.6320
 2968TIP3    H230464   0.543   6.762   3.149 -0.6480 -0.8806 -0.7399
 2969TIP3   OH230465   2.827   3.210   1.566 -0.3217  0.1919 -0.1080
 2969TIP3    H130466   2.842   3.286   1.622 -1.6455  0.5452 -0.2043
 2969TIP3    H230467   2.904   3.155   1.580  0.4536  1.3451  0.2852
 2970TIP3   OH230468   6.645   2.422   1.880  0.0868 -0.0676  0.2705
 2970TIP3    H130469   6.674   2.331   1.869  2.3338  0.8258 -1.9637
 2970TIP3    H230470   6.576   2.433   1.816  1.5101  0.4126 -1.2472
 2971TIP3   OH230471   1.432   3.960   8.145 -0.6815 -0.3167 -0.6532
 2971TIP3    H130472   1.516   3.998   8.171  0.9297 -1.8794 -3.1436
 2971TIP3    H230473   1.371   4.034   8.145  0.9971  1.1331 -0.1207
 2972TIP3   OH230474   0.224   4.855   0.002  0.1866  0.1901  0.1739
 2972TIP3    H130475   0.165   4.925   0.029 -0.1056  0.5970 -1.4141
 2972TIP3    H230476   0.272   4.891  -0.072  1.5801 -0.5656  0.6717
 2973TIP3   OH230477   1.520   0.689   0.361  0.2773  0.0585  0.2580
 2973TIP3    H130478   1.603   0.695   0.409  1.7709 -0.9598 -2.0294
 2973TIP3    H230479   1.503   0.595   0.356  0.1052  0.1481 -1.0645
 2974TIP3   OH230480   2.523   2.409   3.116  0.1615 -0.0303  0.1314
 2974TIP3    H130481   2.476   2.472   3.063  1.4527  1.9867  1.2622
 2974TIP3    H230482   2.494   2.324   3.083 -2.2388  1.1020 -0.9166
 2975TIP3   OH230483   0.596   5.527   3.206  0.1183  0.7082 -0.2797
 2975TIP3    H130484   0.571   5.437   3.228 -0.0096  0.7441 -0.2757
 2975TIP3    H230485   0.691   5.524   3.199  0.0002 -0.0965 -3.0470
 2976TIP3   OH230486   4.185   1.943   8.416 -0.2038 -0.0151 -0.2839
 2976TIP3    H130487   4.118   1.879   8.393  0.6590 -0.4690 -1.6739
 2976TIP3    H230488   4.203   1.928   8.509  1.3434 -3.1770 -0.9514
 2977TIP3   OH230489   4.530   5.012   8.046 -0.1896 -0.0124  0.3248
 2977TIP3    H130490   4.469   4.976   8.111 -1.0235 -0.7106 -0.8069
 2977TIP3    H230491   4.476   5.029   7.969  0.9487 -0.1488 -0.5307
 2978TIP3   OH230492   2.600   6.449   7.646  0.0713 -0.2790  0.8055
 2978TIP3    H130493   2.692   6.475   7.635 -0.3243  0.6705 -0.5496
 2978TIP3    H230494   2.600   6.355   7.631  0.3198  0.2096 -3.4664
 2979TIP3   OH230495   2.854   6.170   2.186  0.4442  0.7973 -0.5432
 2979TIP3    H130496   2.925   6.227   2.214  1.9080 -1.5270  0.7887
 2979TIP3    H230497   2.786   6.181   2.252  1.3242 -0.0441  0.5293
 2980TIP3   OH230498   6.648   1.661   7.124 -0.3477  0.4259  0.1482
 2980TIP3    H130499   6.685   1.749   7.116  1.6183 -0.2399  1.0203
 2980TIP3    H230500   6.579   1.670   7.189  1.4296  0.9691  2.1015
 2981TIP3   OH230501   2.507   1.425   1.391 -0.5455  0.0549 -0.2205
 2981TIP3    H130502   2.573   1.361   1.418  1.1152  1.2543 -1.2382
 2981TIP3    H230503   2.529   1.505   1.439 -0.9704  0.6062 -0.9121
 2982TIP3   OH230504   5.199   1.461   7.568  0.4409  0.4739 -0.0131
 2982TIP3    H130505   5.268   1.527   7.560 -0.0688  0.9029 -1.0117
 2982TIP3    H230506   5.233   1.384   7.521 -0.5208  1.3398 -2.2642
 2983TIP3   OH230507   2.569   3.778   0.257  0.1416  0.1266  0.0504
 2983TIP3    H130508   2.663   3.792   0.270  0.3897 -1.5146  0.2839
 2983TIP3    H230509   2.554   3.690   0.290 -1.8883  1.1068  1.9319
 2984TIP3   OH230510   4.969   2.437   6.849  0.3779 -0.6572 -0.0956
 2984TIP3    H130511   4.910   2.387   6.906 -0.2660 -0.8658 -0.9155
 2984TIP3    H230512   4.968   2.525   6.886  1.1455 -1.1178  1.0800
 2985TIP3   OH230513   5.783   0.410   8.129  0.5329 -0.0323 -0.0997
 2985TIP3    H130514   5.814   0.371   8.210  0.0969 -0.9269 -0.3503
 2985TIP3    H230515   5.689   0.420   8.141  0.6746  1.3065  0.0974
 2986TIP3   OH230516   2.323   3.973   2.391 -0.3037 -0.8917  0.2553
 2986TIP3    H130517   2.416   3.987   2.375  0.0520 -3.5933 -0.5282
 2986TIP3    H230518   2.293   4.054   2.432  1.7005  1.2543 -2.1716
 2987TIP3   OH230519   0.062   5.726   8.493 -0.1242 -0.0368  0.4364
 2987TIP3    H130520   0.031   5.635   8.501  1.9521 -0.9903 -1.2064
 2987TIP3    H230521   0.008   5.764   8.423  0.5897 -0.8436 -0.5918
 2988TIP3   OH230522   4.239   0.677   0.260  0.0594 -0.0194 -0.3135
 2988TIP3    H130523   4.313   0.716   0.214  0.2638  1.7170  1.3729
 2988TIP3    H230524   4.168   0.680   0.196  0.6291  1.2928 -0.9372
 2989TIP3   OH230525   1.596   4.789   7.944  0.9250 -0.3463  0.2125
 2989TIP3    H130526   1.523   4.847   7.965  0.8131 -0.3655 -0.1177
 2989TIP3    H230527   1.617   4.809   7.853  1.2973 -0.3801  0.2919
 2990TIP3   OH230528   1.377   2.589   2.790 -0.7573 -0.5102  0.3404
 2990TIP3    H130529   1.295   2.613   2.833 -0.7307 -0.1721  0.2042
 2990TIP3    H230530   1.350   2.550   2.706 -0.7553  0.4946 -0.1438
 2991TIP3   OH230531   2.983   4.745   2.967  0.0349  0.3124 -0.0029
 2991TIP3    H130532   2.900   4.735   2.920 -0.0622 -2.1001  0.5659
 2991TIP3    H230533   3.043   4.779   2.901 -0.7430 -0.5314 -1.1933
 2992TIP3   OH230534   3.543   5.516   8.057  0.2739  0.5266 -0.0623
 2992TIP3    H130535   3.547   5.580   7.985  0.8873  0.2443 -0.2922
 2992TIP3    H230536   3.568   5.433   8.016  0.8757  0.4094  0.5182
 2993TIP3   OH230537   2.891   0.349   0.589 -0.3812 -0.4631  0.1475
 2993TIP3    H130538   2.962   0.285   0.588 -0.4271 -0.5385  0.9384
 2993TIP3    H230539   2.871   0.364   0.497 -0.9229 -2.2114 -0.0667
 2994TIP3   OH230540   4.874   1.007   7.193 -0.3565  0.0325  0.1762
 2994TIP3    H130541   4.860   1.098   7.167 -0.2516 -0.1890 -0.6772
 2994TIP3    H230542   4.786   0.970   7.198 -0.3376 -0.2228 -1.0103
 2995TIP3   OH230543   5.841   2.359   8.053 -0.8657 -0.7608  0.2674
 2995TIP3    H130544   5.838   2.439   8.105 -0.8924 -1.5837  1.5949
 2995TIP3    H230545   5.750   2.341   8.031 -0.9734 -0.9297  0.8133
 2996TIP3   OH230546   0.887   0.198   7.332  0.2714 -0.1243 -0.3823
 2996TIP3    H130547   0.851   0.236   7.411  1.2993 -1.5177  0.8041
 2996TIP3    H230548   0.826   0.127   7.309  0.2402 -0.0430 -0.5550
 2997TIP3   OH230549   3.121   3.189   8.115 -0.2962  0.0076  0.1779
 2997TIP3    H130550   3.042   3.213   8.165  0.5665 -0.7307  1.9788
 2997TIP3    H230551   3.174   3.138   8.177  0.4569 -1.7272 -1.7730
 2998TIP3   OH230552   4.621   6.467   7.593 -0.2626 -0.1015  0.3767
 2998TIP3    H130553   4.575   6.474   7.677  1.3684  0.5689  1.2708
 2998TIP3    H230554   4.552   6.464   7.527 -1.6292 -1.5304  1.7833
 2999TIP3   OH230555   2.644   5.739   7.623  0.3242 -0.8768 -0.0502
 2999TIP3    H130556   2.636   5.693   7.539  0.2538 -1.4389  0.2627
 2999TIP3    H230557   2.581   5.811   7.617 -1.3118 -2.2200  0.3851
 3000TIP3   OH230558   0.018   6.804   3.055 -0.2140 -0.3193  0.3480
 3000TIP3    H130559  -0.074   6.832   3.054  0.2135  1.2431  0.9490
 3000TIP3    H230560   0.020   6.730   3.116 -0.6200  1.5929  2.8469
 3001TIP3   OH230561   3.682   5.060   8.000  0.2875  0.0055 -0.0520
 3001TIP3    H130562   3.599   5.108   8.005  0.3985  0.0657  2.4365
 3001TIP3    H230563   3.748   5.125   8.026  0.9166 -0.4861 -0.3984
 3002TIP3   OH230564   6.294   3.197   7.436 -0.6326  0.4585 -0.2993
 3002TIP3    H130565   6.384   3.212   7.408 -0.3584  3.8218  1.8674
 3002TIP3    H230566   6.301   3.135   7.509  0.3867  2.7522  1.6852
 3003TIP3   OH230567   4.169   0.823   7.582 -0.1290  0.2261 -0.5123
 3003TIP3    H130568   4.196   0.825   7.673  1.0608 -1.7410 -0.7580
 3003TIP3    H230569   4.237   0.871   7.535  1.1243 -1.6153 -0.6972
 3004TIP3   OH230570   4.759   4.996   0.513 -0.2614  0.2441  0.3057
 3004TIP3    H130571   4.752   4.933   0.585  0.2297  0.8899  0.9318
 3004TIP3    H230572   4.820   5.062   0.544  2.2127 -0.8896 -1.7780
 3005TIP3   OH230573   4.553   3.312   0.132  0.4831 -0.6922 -0.5115
 3005TIP3    H130574   4.530   3.222   0.107  0.1517 -0.1120 -2.4684
 3005TIP3    H230575   4.644   3.306   0.162 -0.0346 -1.9202  0.9350
 3006TIP3   OH230576   1.461   6.370   7.592  0.4019 -0.2602  0.1056
 3006TIP3    H130577   1.486   6.342   7.680  0.0035 -0.3813  0.1824
 3006TIP3    H230578   1.524   6.439   7.570 -0.0853  0.4541  0.8703
 3007TIP3   OH230579   0.952   4.094   1.621 -0.3490 -0.1961  0.1619
 3007TIP3    H130580   1.022   4.159   1.613 -0.5663 -0.0652 -0.9084
 3007TIP3    H230581   0.875   4.137   1.584 -0.6871 -0.7861  0.1614
 3008TIP3   OH230582   5.688   3.856   1.593 -0.1850  0.4463  0.1766
 3008TIP3    H130583   5.613   3.842   1.651 -0.4044 -0.2450 -0.2603
 3008TIP3    H230584   5.723   3.768   1.577 -0.1051  0.6287 -0.6982
 3009TIP3   OH230585   0.302   1.726   1.180  0.3316 -0.1565 -0.6075
 3009TIP3    H130586   0.335   1.707   1.267 -0.1490  0.1150 -0.3647
 3009TIP3    H230587   0.221   1.774   1.194 -1.1948 -2.4055 -1.1367
 3010TIP3   OH230588   1.044   5.076   8.342  0.7439  0.1218  0.1731
 3010TIP3    H130589   0.987   5.081   8.265 -0.0372  0.5993  0.7656
 3010TIP3    H230590   0.984   5.084   8.416  1.7450  2.3219  0.8070
 3011TIP3   OH230591   0.220   0.715   2.543 -0.6574 -0.1846  0.6527
 3011TIP3    H130592   0.237   0.735   2.635  1.4134 -2.2793  0.8130
 3011TIP3    H230593   0.203   0.800   2.503  1.5431  1.1829  2.3622
 3012TIP3   OH230594   4.117   3.030   8.048 -0.1363  0.2391  0.0344
 3012TIP3    H130595   4.096   2.937   8.042  2.9206 -0.6360  0.8634
 3012TIP3    H230596   4.102   3.064   7.960 -0.2920 -1.2954 -0.5616
 3013TIP3   OH230597   4.959   3.259   7.802  0.3108 -0.2673  0.6199
 3013TIP3    H130598   4.869   3.289   7.817  0.8943  2.7713 -1.0348
 3013TIP3    H230599   5.000   3.260   7.888 -0.2402  2.3078  0.9399
 3014TIP3   OH230600   2.215   3.581   1.514  0.1086  0.0011  0.4883
 3014TIP3    H130601   2.206   3.486   1.522  1.7961 -0.3194 -0.9017
 3014TIP3    H230602   2.173   3.615   1.593 -4.5520 -1.5625 -0.9607
 3015TIP3   OH230603   6.872   3.115   1.354  0.3648 -0.3239 -0.0718
 3015TIP3    H130604   6.791   3.133   1.402 -0.5954  1.9990 -2.3481
 3015TIP3    H230605   6.853   3.033   1.306  0.5772 -1.4953  1.7520
 3016TIP3   OH230606   1.571   5.412   1.508  0.2342  0.5755 -0.3379
 3016TIP3    H130607   1.653   5.398   1.461  0.5353  0.4809  0.2088
 3016TIP3    H230608   1.592   5.478   1.574  0.0041  0.1637  0.1494
 3017TIP3   OH230609   0.533   0.816   0.579  0.7766 -0.3850  0.0358
 3017TIP3    H130610   0.581   0.898   0.580  0.2086 -0.0371  1.0716
 3017TIP3    H230611   0.488   0.814   0.664  1.4418 -2.1620  0.3826
 3018TIP3   OH230612   5.216   4.617   1.296 -0.2343 -0.5482  0.1665
 3018TIP3    H130613   5.223   4.651   1.385 -1.4343 -1.6565  0.7137
 3018TIP3    H230614   5.252   4.687   1.241 -1.2573  0.9838  1.3540
 3019TIP3   OH230615   1.020   2.201   1.290  0.2534  0.2484 -0.2940
 3019TIP3    H130616   0.962   2.277   1.285  0.2951  0.2994 -0.0084
 3019TIP3    H230617   1.012   2.170   1.380 -0.7850 -0.8891 -0.7364
 3020TIP3   OH230618   6.322   5.499   3.038  0.4566 -0.5878  0.3446
 3020TIP3    H130619   6.326   5.405   3.053  0.4319 -0.8785 -1.2557
 3020TIP3    H230620   6.376   5.513   2.961  2.1234  1.0269  1.7198
 3021TIP3   OH230621   1.651   2.385   7.950  0.7276  0.0210 -0.6202
 3021TIP3    H130622   1.682   2.294   7.949  1.1898  0.1337  0.9676
 3021TIP3    H230623   1.558   2.378   7.971  0.1748 -0.1739 -2.8566
 3022TIP3   OH230624   0.346   5.328   8.321  0.1439  0.4196  0.2883
 3022TIP3    H130625   0.434   5.294   8.307 -1.0060 -2.9932  0.5660
 3022TIP3    H230626   0.331   5.318   8.415 -0.4707  1.2459  0.2931
 3023TIP3   OH230627   5.541   4.708   7.291  0.0530  0.2930 -0.3735
 3023TIP3    H130628   5.485   4.699   7.214 -0.6018 -0.8552  0.2008
 3023TIP3    H230629   5.483   4.744   7.359  0.2794  0.0869 -0.0663
 3024TIP3   OH230630   0.448   1.792   0.504  0.6240 -0.7810 -0.5120
 3024TIP3    H130631   0.518   1.826   0.560  0.0759 -0.3740 -0.0674
 3024TIP3    H230632   0.447   1.698   0.521  1.4360 -0.8816 -0.9498
 3025TIP3   OH230633   6.229   3.083   1.807 -0.2726 -0.3762  0.4346
 3025TIP3    H130634   6.215   2.989   1.795  0.0495 -0.7673  2.6776
 3025TIP3    H230635   6.324   3.093   1.811 -0.2934  0.1245 -0.2469
 3026TIP3   OH230636   2.023   3.703   3.102 -0.3704  0.1751 -0.4869
 3026TIP3    H130637   2.052   3.628   3.050 -0.9683  0.3004 -1.0099
 3026TIP3    H230638   1.955   3.667   3.160  1.0669 -0.2131  1.0429
 3027TIP3   OH230639   0.347   5.897   2.120 -0.1314  0.3601 -0.1132
 3027TIP3    H130640   0.272   5.880   2.176 -0.4398  0.8489 -0.3619
 3027TIP3    H230641   0.407   5.825   2.137 -1.7652 -1.5511 -1.8375
 3028TIP3   OH230642   6.274   3.859   7.606  0.1873 -0.6528 -0.4944
 3028TIP3    H130643   6.199   3.806   7.579 -1.1035  0.7304  0.2374
 3028TIP3    H230644   6.267   3.939   7.555  0.5450 -0.0744  0.3431
 3029TIP3   OH230645   3.727   5.669   2.378  0.2367  0.4006  0.0344
 3029TIP3    H130646   3.760   5.733   2.316 -2.4422  1.4161 -0.4847
 3029TIP3    H230647   3.641   5.644   2.344  0.5227 -2.3721  1.0199
 3030TIP3   OH230648   2.087   0.448   8.403 -0.4217 -0.3838  0.2049
 3030TIP3    H130649   2.171   0.403   8.391  0.9484  1.7201  1.2845
 3030TIP3    H230650   2.075   0.498   8.323  0.3619  0.7821  0.7835
 3031TIP3   OH230651   4.462   0.238   1.295  0.2652 -0.2293 -0.7816
 3031TIP3    H130652   4.403   0.241   1.220 -0.0053  0.7357 -0.5541
 3031TIP3    H230653   4.513   0.319   1.288 -2.1345  1.7793  1.8904
 3032TIP3   OH230654   4.713   4.516   6.996  0.6183  0.6069  0.3773
 3032TIP3    H130655   4.674   4.433   6.969  1.2422 -0.6742  3.0343
 3032TIP3    H230656   4.637   4.571   7.019  0.2256 -0.1169  0.8692
 3033TIP3   OH230657   5.710   1.987   7.079 -0.5305 -0.1418  0.0300
 3033TIP3    H130658   5.637   2.015   7.134  1.0905  2.4317  1.0795
 3033TIP3    H230659   5.670   1.931   7.013 -3.2656  0.2862  1.1819
 3034TIP3   OH230660   3.500   3.752   1.934 -0.3118 -0.1352 -0.6120
 3034TIP3    H130661   3.453   3.791   2.008  0.8699 -0.4627  0.3365
 3034TIP3    H230662   3.532   3.827   1.884  0.4188  0.1207  0.2152
 3035TIP3   OH230663   2.962   3.701   1.755 -0.8121 -0.2939  0.0131
 3035TIP3    H130664   2.938   3.630   1.695  0.2199  0.4597 -1.3594
 3035TIP3    H230665   2.988   3.657   1.836 -1.7942 -1.3706 -0.2246
 3036TIP3   OH230666   4.248   2.363   3.078  0.2120 -0.5058 -0.1228
 3036TIP3    H130667   4.243   2.459   3.074  1.8593 -0.4287 -1.1957
 3036TIP3    H230668   4.196   2.334   3.002 -2.6130 -0.6386  1.7159
 3037TIP3   OH230669   1.521   0.079   0.599 -0.1550  0.0377  0.3417
 3037TIP3    H130670   1.504   0.087   0.693 -0.0721 -1.7756  0.5367
 3037TIP3    H230671   1.585   0.009   0.592 -1.0946 -0.7162 -1.1472
 3038TIP3   OH230672   4.718   4.317   1.636 -0.1460  0.1078 -0.1787
 3038TIP3    H130673   4.673   4.246   1.589 -0.0063 -0.1689  0.1054
 3038TIP3    H230674   4.716   4.390   1.575 -0.5122 -0.0647 -0.3782
 3039TIP3   OH230675   3.141   3.568   7.240 -0.2190  1.0069  0.4570
 3039TIP3    H130676   3.099   3.632   7.298  1.1688  3.5462 -1.1723
 3039TIP3    H230677   3.159   3.616   7.160 -1.3483 -2.1437 -1.9046
 3040TIP3   OH230678   1.416   6.678   3.096  0.1225 -0.2618 -0.3359
 3040TIP3    H130679   1.356   6.666   3.169  0.3381 -1.3682 -0.3176
 3040TIP3    H230680   1.391   6.762   3.057 -1.1165 -0.4839 -0.0452
 3041TIP3   OH230681   0.888   6.129   0.554 -0.6339  0.4186 -0.2112
 3041TIP3    H130682   0.835   6.153   0.630 -0.3079 -0.2645  0.2435
 3041TIP3    H230683   0.872   6.035   0.542 -0.9317  0.5865 -1.1892
 3042TIP3   OH230684   4.263   4.036   7.201  0.1636  0.4460 -0.4146
 3042TIP3    H130685   4.230   3.999   7.283 -1.5207 -0.0597 -1.2757
 3042TIP3    H230686   4.302   3.962   7.155 -0.3900  0.3768 -0.7803
 3043TIP3   OH230687   5.881   2.431   2.344 -0.3019  0.6193 -0.6293
 3043TIP3    H130688   5.939   2.468   2.278  1.6603 -1.3464 -0.1235
 3043TIP3    H230689   5.876   2.498   2.412  1.3309  0.8994 -0.7470
 3044TIP3   OH230690   6.712   0.690   0.634 -0.0488  0.6421 -0.1558
 3044TIP3    H130691   6.787   0.699   0.576  0.0440  0.8871  0.0019
 3044TIP3    H230692   6.668   0.775   0.630 -0.6937  0.2939 -0.7633
 3045TIP3   OH230693   3.108   1.980   1.459  0.3101 -0.4307  0.3325
 3045TIP3    H130694   3.104   1.909   1.394  1.6114  0.1883 -0.4519
 3045TIP3    H230695   3.018   2.012   1.465  0.0827 -0.7952 -0.8437
 3046TIP3   OH230696   2.500   3.171   8.260 -0.4994  0.0902  0.0439
 3046TIP3    H130697   2.563   3.232   8.298  0.1614  1.3304 -2.7874
 3046TIP3    H230698   2.553   3.107   8.212 -1.3078  0.2358 -1.0929
 3047TIP3   OH230699   3.161   1.989   8.430  0.6229 -0.1140  0.2038
 3047TIP3    H130700   3.162   1.895   8.414  1.6703  0.0238 -0.6130
 3047TIP3    H230701   3.068   2.011   8.440  0.0516 -0.6807 -2.9693
 3048TIP3   OH230702   1.868   0.544   2.070 -0.0629  0.1038 -0.4810
 3048TIP3    H130703   1.898   0.623   2.027  0.6668 -0.6172 -1.3227
 3048TIP3    H230704   1.827   0.575   2.151  3.0660  1.1402  0.8423
 3049TIP3   OH230705   5.589   0.657   7.702 -0.0658 -0.4433 -0.2390
 3049TIP3    H130706   5.603   0.563   7.701  1.9675 -0.1784 -0.8620
 3049TIP3    H230707   5.637   0.688   7.780 -1.0469  0.0414  0.1896
 3050TIP3   OH230708   0.539   2.253   2.166 -0.6036 -0.3533 -0.4790
 3050TIP3    H130709   0.513   2.180   2.109  1.2099  0.3609 -2.3697
 3050TIP3    H230710   0.472   2.320   2.150 -1.3822 -1.0016  0.0210
 3051TIP3   OH230711   1.965   2.641   8.103  0.2579 -0.2329  0.0429
 3051TIP3    H130712   2.007   2.718   8.143  1.9649  0.1468 -2.2047
 3051TIP3    H230713   1.881   2.673   8.072  0.3405  0.3422  0.3953
 3052TIP3   OH230714   6.089   0.057   1.182 -0.1322 -0.3451 -0.3678
 3052TIP3    H130715   5.995   0.058   1.165 -0.5631 -2.7932  1.2333
 3052TIP3    H230716   6.096   0.055   1.277  1.3007 -3.2642 -0.4049
 3053TIP3   OH230717   4.315   0.272   2.686 -0.1779 -0.2408  0.2070
 3053TIP3    H130718   4.226   0.285   2.652  0.2477  0.1418 -0.8054
 3053TIP3    H230719   4.326   0.177   2.690 -0.3219 -0.2943 -0.5235
 3054TIP3   OH230720   3.355   6.603   1.558  0.0213  0.5212  0.2878
 3054TIP3    H130721   3.379   6.653   1.637  0.6706 -1.1701  1.2090
 3054TIP3    H230722   3.379   6.661   1.486 -1.3477  2.4527  1.2957
 3055TIP3   OH230723   4.013   6.015   2.498 -0.4287 -0.6514  0.2934
 3055TIP3    H130724   3.990   6.089   2.554 -1.8059 -1.1554  0.4282
 3055TIP3    H230725   4.109   6.013   2.499 -0.2390  2.3813 -1.3815
 3056TIP3   OH230726   0.166   1.214   8.073 -0.4317  0.0900 -0.1669
 3056TIP3    H130727   0.129   1.239   7.989 -0.3408  0.2465 -0.1604
 3056TIP3    H230728   0.096   1.165   8.117 -0.5548  0.1989 -0.2437
 3057TIP3   OH230729   4.189   6.661   8.488 -0.0921 -0.5182 -0.5639
 3057TIP3    H130730   4.167   6.752   8.507  0.6988 -0.9999  3.3758
 3057TIP3    H230731   4.104   6.618   8.474 -0.6738  0.3399  0.1985
 3058TIP3   OH230732   4.303   0.311   7.418  0.1216 -0.0802 -0.1637
 3058TIP3    H130733   4.286   0.375   7.349 -0.4566 -0.5067 -0.4247
 3058TIP3    H230734   4.267   0.351   7.497 -0.2836 -0.1046 -0.3355
 3059TIP3   OH230735   3.514   5.367   7.599 -0.0427  0.1695  1.0999
 3059TIP3    H130736   3.553   5.289   7.559 -1.6785 -0.6254  0.9549
 3059TIP3    H230737   3.566   5.384   7.677  2.4232  0.9648 -0.5895
 3060TIP3   OH230738   5.777   4.108   8.137 -0.3003 -0.2522  0.1332
 3060TIP3    H130739   5.773   4.179   8.200  0.7024  0.0952 -0.1667
 3060TIP3    H230740   5.868   4.108   8.107 -0.0401 -2.2004  0.7557
 3061TIP3   OH230741   6.774   2.258   8.224 -0.0949  0.3384 -0.1199
 3061TIP3    H130742   6.844   2.204   8.188 -1.1564 -1.7224  0.7437
 3061TIP3    H230743   6.702   2.249   8.162 -0.9011 -0.7844  0.9376
 3062TIP3   OH230744   5.477   4.459   2.030 -0.2490  0.0970 -0.7496
 3062TIP3    H130745   5.402   4.505   1.993  0.1727 -1.0348 -3.2411
 3062TIP3    H230746   5.444   4.420   2.111 -1.5180  1.9370 -0.3204
 3063TIP3   OH230747   1.150   2.851   1.645  0.2796 -0.2195  0.3423
 3063TIP3    H130748   1.163   2.758   1.624  0.2745 -0.6788  2.1909
 3063TIP3    H230749   1.212   2.897   1.589 -0.9191 -1.1728 -1.8814
 3064TIP3   OH230750   3.659   1.557   0.566 -0.2349  0.0405  0.2826
 3064TIP3    H130751   3.571   1.572   0.534 -0.1583 -0.6225 -0.2655
 3064TIP3    H230752   3.684   1.640   0.607  0.3230  1.6394 -2.9239
 3065TIP3   OH230753   4.764   4.588   7.746  0.6077  0.1941  0.2510
 3065TIP3    H130754   4.674   4.557   7.747  0.5593  0.1949 -1.5888
 3065TIP3    H230755   4.757   4.682   7.729  0.9668 -0.1298 -2.0116
 3066TIP3   OH230756   3.032   5.990   1.786 -0.3170 -0.4704 -0.2802
 3066TIP3    H130757   2.962   6.055   1.779  0.0179 -0.0066  0.4666
 3066TIP3    H230758   2.987   5.906   1.784 -1.1706 -0.1673  2.4575
 3067TIP3   OH230759   3.042   4.631   7.704 -0.0612  0.3888  0.1284
 3067TIP3    H130760   3.039   4.629   7.800  1.4303 -0.4828  0.1855
 3067TIP3    H230761   2.954   4.660   7.678 -1.3706 -1.8694  1.6751
 3068TIP3   OH230762   5.887   0.145   7.322  0.1657 -0.1912  0.1831
 3068TIP3    H130763   5.797   0.146   7.291 -0.0144  0.3573  0.6947
 3068TIP3    H230764   5.940   0.142   7.242 -0.2857  1.1777 -0.1946
 3069TIP3   OH230765   4.415   1.646   0.991  0.4759 -0.2974 -0.7585
 3069TIP3    H130766   4.331   1.650   0.947  0.3726  0.6100 -0.5012
 3069TIP3    H230767   4.408   1.709   1.062  0.8530 -1.2951  0.1984
 3070TIP3   OH230768   3.757   3.225   2.933  0.2228 -0.1990 -0.3293
 3070TIP3    H130769   3.839   3.257   2.970 -0.0278 -1.5444  1.5566
 3070TIP3    H230770   3.690   3.282   2.969  0.2792  0.7616 -1.6925
 3071TIP3   OH230771   1.397   0.317   6.987 -0.0182  0.2939  0.8927
 3071TIP3    H130772   1.372   0.229   6.960 -0.9438  0.4862  1.1076
 3071TIP3    H230773   1.488   0.326   6.957 -1.2256  0.9116 -3.2646
 3072TIP3   OH230774   2.410   6.557   0.765  0.0330  0.4932  0.7275
 3072TIP3    H130775   2.445   6.522   0.847  1.2579  0.4099  0.1887
 3072TIP3    H230776   2.373   6.482   0.720  0.4591  0.3196  0.6635
 3073TIP3   OH230777   4.430   0.318   2.920 -0.2093 -0.0165 -0.3214
 3073TIP3    H130778   4.375   0.320   2.842 -1.9863  1.2327  0.8972
 3073TIP3    H230779   4.400   0.240   2.967 -1.6948  1.1522  0.7862
 3074TIP3   OH230780   1.146   6.397   2.534  0.1262 -0.3278 -0.3743
 3074TIP3    H130781   1.158   6.311   2.574 -0.7042 -0.8477 -1.1915
 3074TIP3    H230782   1.100   6.379   2.452  1.8783  0.6734 -1.6515
 3075TIP3   OH230783   0.777   5.516   7.589  0.2051 -0.4769  0.4727
 3075TIP3    H130784   0.842   5.456   7.552  1.8947  0.7615  1.2610
 3075TIP3    H230785   0.711   5.525   7.521  2.7486  1.1125 -2.0368
 3076TIP3   OH230786   4.912   3.554   1.345 -0.0328  0.0045 -0.5017
 3076TIP3    H130787   4.959   3.565   1.262  1.3687 -0.5834  0.1828
 3076TIP3    H230788   4.934   3.465   1.373 -0.9938 -0.0224  0.2116
 3077TIP3   OH230789   3.474   6.782   0.676 -0.2378  0.1334 -0.3877
 3077TIP3    H130790   3.521   6.711   0.719 -0.6171  1.3879  2.3745
 3077TIP3    H230791   3.445   6.746   0.592 -1.0590 -3.2072  1.1784
 3078TIP3   OH230792   6.633   0.166   7.553 -0.5010  0.2042 -0.2506
 3078TIP3    H130793   6.724   0.139   7.543 -0.4166  0.3667  0.0590
 3078TIP3    H230794   6.587   0.125   7.480 -0.1198  0.3905 -0.5954
 3079TIP3   OH230795   4.001   3.275   0.776 -0.1739  0.2350  0.1699
 3079TIP3    H130796   3.941   3.299   0.846 -0.5795 -1.3029  0.3873
 3079TIP3    H230797   3.962   3.312   0.697  0.3240  2.0460  0.7225
 3080TIP3   OH230798   4.052   5.214   0.621  0.0644  0.7637 -0.3501
 3080TIP3    H130799   3.971   5.190   0.665 -0.4069  2.0537 -0.4651
 3080TIP3    H230800   4.117   5.154   0.655 -1.0382 -0.6459 -0.6495
 3081TIP3   OH230801   2.880   0.917   1.514  0.3135 -0.1598  0.1290
 3081TIP3    H130802   2.934   0.907   1.435 -1.2879 -2.2663 -0.7988
 3081TIP3    H230803   2.920   0.989   1.562  1.3453  1.1910 -2.6025
 3082TIP3   OH230804   2.998   1.096   0.087 -0.1000 -0.2558  0.5929
 3082TIP3    H130805   2.998   1.117  -0.006  0.6931  1.0191  0.8747
 3082TIP3    H230806   2.907   1.111   0.114 -0.3966 -0.8762 -0.0028
 3083TIP3   OH230807   0.377   2.189   0.850 -0.2055 -0.1562 -0.1950
 3083TIP3    H130808   0.370   2.108   0.799 -0.5607  1.4110 -2.8528
 3083TIP3    H230809   0.372   2.160   0.941 -1.6663 -2.9857 -1.0300
 3084TIP3   OH230810   1.420   5.471   0.871  0.2759 -0.1757 -0.3215
 3084TIP3    H130811   1.409   5.545   0.811  0.0316  0.3544  0.3595
 3084TIP3    H230812   1.364   5.402   0.836 -1.2264  0.7168  0.2419
 3085TIP3   OH230813   3.475   0.643   7.060  0.0562 -0.5170 -0.0221
 3085TIP3    H130814   3.490   0.724   7.109  0.6294 -0.7445  0.1812
 3085TIP3    H230815   3.386   0.653   7.024 -0.5654 -0.5490  1.4481
 3086TIP3   OH230816   6.021   4.234   0.331  0.5363 -0.2498  0.6306
 3086TIP3    H130817   6.099   4.208   0.281  0.3881  1.6664 -0.6965
 3086TIP3    H230818   6.013   4.328   0.316 -3.5842 -0.7130 -1.6181
 3087TIP3   OH230819   4.576   1.709   2.277 -0.1806 -0.0886  0.1306
 3087TIP3    H130820   4.550   1.672   2.361  2.6863 -0.5503  0.9254
 3087TIP3    H230821   4.627   1.787   2.299 -0.0246  0.2267 -1.2190
 3088TIP3   OH230822   4.688   0.113   2.700 -0.5895  0.5063  0.0217
 3088TIP3    H130823   4.712   0.037   2.753 -0.1161  0.9831  0.4917
 3088TIP3    H230824   4.607   0.146   2.740 -1.1917 -0.1497 -0.6051
 3089TIP3   OH230825   3.332   4.539   8.377 -0.1074  0.0400 -0.1859
 3089TIP3    H130826   3.358   4.616   8.427 -0.1772  0.9839 -1.5689
 3089TIP3    H230827   3.371   4.466   8.425  1.5969  1.0737  0.0993
 3090TIP3   OH230828   6.894   1.518   7.107  0.3468  0.1728 -0.4649
 3090TIP3    H130829   6.809   1.555   7.081  0.0561  0.5678  0.9572
 3090TIP3    H230830   6.908   1.551   7.196  0.1057 -3.1137  0.9193
 3091TIP3   OH230831   4.897   4.045   1.016  0.2654  0.0144 -0.1219
 3091TIP3    H130832   4.906   4.119   0.955 -1.3662 -0.1578 -0.6200
 3091TIP3    H230833   4.876   4.085   1.100  0.5707  0.1609 -0.1126
 3092TIP3   OH230834   2.280   6.113   1.484 -0.0362  0.2127 -0.2114
 3092TIP3    H130835   2.293   6.207   1.499 -2.1810  0.9664 -2.4260
 3092TIP3    H230836   2.234   6.083   1.562  0.9223  0.8925  0.6559
 3093TIP3   OH230837   1.624   6.314   8.141  0.4215 -0.4341  0.3182
 3093TIP3    H130838   1.679   6.307   8.063 -0.7557  0.8582 -0.6734
 3093TIP3    H230839   1.543   6.269   8.118  0.5343 -1.1832  1.2958
 3094TIP3   OH230840   0.285   6.604   7.586 -0.3934  0.0845 -0.2520
 3094TIP3    H130841   0.272   6.560   7.670  0.0826 -0.1020 -0.2743
 3094TIP3    H230842   0.199   6.638   7.563 -0.7505 -0.7806 -0.2078
 3095TIP3   OH230843   5.844   2.571   0.428 -0.0508 -0.1897 -0.5093
 3095TIP3    H130844   5.832   2.500   0.365 -0.7939 -0.8473  0.3520
 3095TIP3    H230845   5.915   2.624   0.390  1.0214 -1.7673 -0.8399
 3096TIP3   OH230846   0.472   0.228   0.464  0.9151  0.2427  0.0039
 3096TIP3    H130847   0.542   0.290   0.484  1.8327 -0.5061 -0.7636
 3096TIP3    H230848   0.503   0.181   0.386  0.4385 -1.4295  0.7652
 3097TIP3   OH230849   3.704   2.173   8.309 -0.9717  0.2967  0.2482
 3097TIP3    H130850   3.779   2.184   8.366 -1.7079  0.0638  1.2867
 3097TIP3    H230851   3.730   2.213   8.226 -0.4411  2.0372  1.2167
 3098TIP3   OH230852   5.916   4.658   7.997 -0.4788  0.5928 -0.3797
 3098TIP3    H130853   6.008   4.630   7.993 -0.5659  0.3994 -1.3041
 3098TIP3    H230854   5.902   4.704   7.914 -1.0624  1.1342  0.0072
 3099TIP3   OH230855   1.706   2.228   6.679  0.5776  0.0690  0.1983
 3099TIP3    H130856   1.673   2.139   6.668  0.1627  0.2123  0.2702
 3099TIP3    H230857   1.753   2.226   6.763  0.2910 -0.0029  0.3591
 3100TIP3   OH230858   5.876   2.283   7.381 -0.1636  0.0515 -0.3494
 3100TIP3    H130859   5.796   2.335   7.395 -1.2859 -1.5883 -0.3967
 3100TIP3    H230860   5.904   2.306   7.293 -0.6008  0.6168 -0.3515
 3101TIP3   OH230861   2.331   3.476   2.630  0.2719  0.0890  0.0971
 3101TIP3    H130862   2.412   3.521   2.655 -0.0671  0.6216  0.2497
 3101TIP3    H230863   2.262   3.538   2.652 -0.1670 -0.2917 -0.2050
 3102TIP3   OH230864   5.318   1.245   0.787 -0.0655  0.5388 -0.4473
 3102TIP3    H130865   5.355   1.171   0.836 -0.0899 -0.0239 -1.2490
 3102TIP3    H230866   5.356   1.322   0.829 -0.0688  0.0796  0.4330
 3103TIP3   OH230867   3.831   0.772   7.233  0.6449  0.2446 -0.0159
 3103TIP3    H130868   3.851   0.722   7.312 -1.0574  2.5686  2.0168
 3103TIP3    H230869   3.897   0.840   7.230  1.8041 -0.8614 -1.7202
 3104TIP3   OH230870   5.122   0.510   1.491  0.1966  0.0061  0.1130
 3104TIP3    H130871   5.129   0.606   1.488 -0.9889  0.0870 -0.9003
 3104TIP3    H230872   5.122   0.483   1.399  0.3098 -0.9536  0.3837
 3105TIP3   OH230873   2.229   5.669   2.717  0.3348 -0.1714  0.1650
 3105TIP3    H130874   2.233   5.749   2.769 -1.5050 -0.7505  1.2709
 3105TIP3    H230875   2.303   5.676   2.657  0.5804  2.0583  0.6499
 3106TIP3   OH230876   1.684   4.861   7.699 -0.2820 -0.1824  0.2772
 3106TIP3    H130877   1.765   4.905   7.674 -0.2517 -0.1313  0.4629
 3106TIP3    H230878   1.616   4.905   7.649 -0.5494  1.5378  2.0312
 3107TIP3   OH230879   0.179   5.713   2.548 -0.3449  0.1121 -0.4767
 3107TIP3    H130880   0.155   5.622   2.529  0.2979 -0.3360  0.7530
 3107TIP3    H230881   0.212   5.711   2.638  0.7155  1.3652 -0.8104
 3108TIP3   OH230882   4.806   4.465   1.283  0.2340  0.0171 -0.0070
 3108TIP3    H130883   4.762   4.545   1.255 -1.1201 -0.6472  0.1528
 3108TIP3    H230884   4.735   4.405   1.305  1.2275 -1.1230  0.1873
 3109TIP3   OH230885   6.438   6.515   2.569  0.5215  0.4409 -0.2913
 3109TIP3    H130886   6.512   6.455   2.575  1.5206  1.6075 -0.5341
 3109TIP3    H230887   6.453   6.578   2.640 -0.4197  0.5066 -0.1397
 3110TIP3   OH230888   1.566   3.223   7.626 -0.3688  0.0517  0.1395
 3110TIP3    H130889   1.513   3.171   7.687  2.0715 -1.3365  1.2662
 3110TIP3    H230890   1.654   3.185   7.633  0.3630  0.8028 -3.2111
 3111TIP3   OH230891   6.483   2.853   0.018 -0.0444 -0.3712  0.1914
 3111TIP3    H130892   6.418   2.836  -0.050 -0.0410  0.7407 -0.1037
 3111TIP3    H230893   6.474   2.778   0.078 -1.9297 -0.0194  0.4249
 3112TIP3   OH230894   0.461   4.014   1.309 -0.1049 -0.1960  0.2302
 3112TIP3    H130895   0.549   4.015   1.346  0.5960  2.3139 -1.2788
 3112TIP3    H230896   0.403   4.029   1.384  0.9959  1.0984  0.8645
 3113TIP3   OH230897   4.905   2.584   1.533  0.1608  0.3272 -0.5228
 3113TIP3    H130898   4.818   2.600   1.571  0.1573  0.3530 -0.5423
 3113TIP3    H230899   4.890   2.515   1.469  0.6966 -1.9463  1.6496
 3114TIP3   OH230900   6.503   5.728   8.222  0.3237  0.1159  0.1194
 3114TIP3    H130901   6.473   5.702   8.135  0.0536 -0.9298  0.5080
 3114TIP3    H230902   6.461   5.813   8.237 -1.7111 -0.8426  0.2304
 3115TIP3   OH230903   1.428   5.965   1.558 -0.6350 -0.5899  0.2211
 3115TIP3    H130904   1.500   6.029   1.554 -0.7873 -0.4299  0.0558
 3115TIP3    H230905   1.401   5.965   1.650 -1.6608  0.7168 -0.0523
 3116TIP3   OH230906   1.228   1.174   8.515 -0.0413  0.5444 -0.5580
 3116TIP3    H130907   1.172   1.128   8.452 -0.6152 -1.9299  1.5787
 3116TIP3    H230908   1.169   1.231   8.564 -0.8009 -1.7527  1.4119
 3117TIP3   OH230909   5.105   5.802   7.630  1.0045  0.0184  0.0780
 3117TIP3    H130910   5.050   5.854   7.572 -2.7065 -1.3241  2.0555
 3117TIP3    H230911   5.089   5.712   7.604  0.0751 -0.5514  2.3179
 3118TIP3   OH230912   4.383   4.575   0.991 -0.8366 -0.3848  0.2944
 3118TIP3    H130913   4.373   4.599   1.083 -1.6743  0.1676  0.0782
 3118TIP3    H230914   4.377   4.480   0.989 -2.3896 -0.3171  0.6545
 3119TIP3   OH230915   3.869   2.494   2.044  0.0285 -0.0140  0.3100
 3119TIP3    H130916   3.918   2.509   1.963  1.0566 -0.8006  0.7621
 3119TIP3    H230917   3.935   2.497   2.113 -0.9007  1.1067  1.1989
 3120TIP3   OH230918   4.851   0.586   7.229  0.3390  0.6192 -0.7399
 3120TIP3    H130919   4.803   0.627   7.301  1.4855  1.0957 -0.2260
 3120TIP3    H230920   4.885   0.505   7.267 -1.2498 -0.4616 -1.5245
 3121TIP3   OH230921   3.524   4.564   1.907  0.0032 -0.2602  0.3233
 3121TIP3    H130922   3.464   4.636   1.928 -2.0708 -1.4029 -1.2098
 3121TIP3    H230923   3.495   4.533   1.821  2.6454 -1.1332 -0.3533
 3122TIP3   OH230924   4.990   3.078   0.375 -0.4956  0.2122 -0.2076
 3122TIP3    H130925   5.055   3.009   0.367 -0.4550  0.1717  0.4269
 3122TIP3    H230926   5.019   3.131   0.449 -1.1579  0.2173  0.0585
 3123TIP3   OH230927   4.832   0.143   8.180 -0.2370  0.1193 -0.5441
 3123TIP3    H130928   4.760   0.190   8.223 -0.7450  0.7833 -2.0462
 3123TIP3    H230929   4.905   0.150   8.242 -1.4647 -0.6832  1.0857
 3124TIP3   OH230930   3.110   0.162   1.324  0.3499  0.1164  0.0491
 3124TIP3    H130931   3.038   0.119   1.372  1.4418 -0.6598  1.0603
 3124TIP3    H230932   3.117   0.113   1.242  0.3287 -0.4199  0.3614
 3125TIP3   OH230933   2.636   3.016   1.428 -0.2532  0.3929  0.3964
 3125TIP3    H130934   2.726   3.031   1.456  0.2878  0.6374 -1.3569
 3125TIP3    H230935   2.598   3.103   1.422  0.0389  0.4598 -0.8030
 3126TIP3   OH230936   3.586   6.577   0.068 -0.1372  0.0454  0.0302
 3126TIP3    H130937   3.659   6.632   0.039 -0.2891 -0.8690 -2.2745
 3126TIP3    H230938   3.515   6.639   0.084  1.0640  0.9569  2.3400
 3127TIP3   OH230939   0.457   6.796   7.656  0.1329  0.1778 -0.3851
 3127TIP3    H130940   0.403   6.721   7.629 -0.2738  0.7810 -1.3070
 3127TIP3    H230941   0.517   6.809   7.583  0.8874  0.1251  0.2183
 3128TIP3   OH230942   6.896   5.576   0.772 -0.5169  0.5813  0.0473
 3128TIP3    H130943   6.936   5.492   0.750 -0.6286  0.1576  1.3524
 3128TIP3    H230944   6.969   5.638   0.769 -0.2527  0.2690 -0.0152
 3129TIP3   OH230945   4.959   4.681   6.965  0.1237 -0.1959 -0.1998
 3129TIP3    H130946   4.935   4.760   7.015 -0.1965 -0.6765  0.4168
 3129TIP3    H230947   4.878   4.630   6.961 -0.5030  0.8554 -3.2113
 3130TIP3   OH230948   1.098   2.250   7.366 -0.0763 -0.1550  0.0830
 3130TIP3    H130949   1.096   2.157   7.343 -0.4103 -0.0377 -0.3670
 3130TIP3    H230950   1.053   2.255   7.450  1.1733 -0.5899  0.8124
 3131TIP3   OH230951   5.268   2.039   0.431  0.4893  0.4019  0.0793
 3131TIP3    H130952   5.190   2.058   0.483  0.8073  0.1018  0.6723
 3131TIP3    H230953   5.250   2.079   0.346 -0.5241 -0.1037  0.0433
 3132TIP3   OH230954   0.792   5.845   0.262  0.6421  0.2656 -0.3266
 3132TIP3    H130955   0.708   5.888   0.245 -0.1907 -1.3168 -0.4082
 3132TIP3    H230956   0.790   5.766   0.206  0.5446 -1.7917  2.3840
 3133TIP3   OH230957   2.900   0.751   3.009  0.4112  0.3968  0.9587
 3133TIP3    H130958   2.966   0.809   2.970 -0.2804  0.7416  0.2546
 3133TIP3    H230959   2.934   0.663   2.995  0.0924  0.4888 -0.6724
 3134TIP3   OH230960   1.373   4.325   0.228  0.2858 -0.0437 -0.1747
 3134TIP3    H130961   1.373   4.229   0.226  1.2952 -0.0595 -0.2957
 3134TIP3    H230962   1.463   4.347   0.254  0.2582  0.8766 -0.8216
 3135TIP3   OH230963   6.589   1.870   2.765  0.5969  0.5639 -0.6318
 3135TIP3    H130964   6.613   1.869   2.858  0.1288  0.5396 -0.5070
 3135TIP3    H230965   6.614   1.958   2.735  4.5450 -0.6760 -1.5295
 3136TIP3   OH230966   0.315   5.388   1.379  0.1412 -0.3866 -0.3781
 3136TIP3    H130967   0.276   5.377   1.292 -1.0429  1.1243 -0.0810
 3136TIP3    H230968   0.258   5.339   1.437 -0.0957  0.0520 -0.2332
 3137TIP3   OH230969   5.065   3.811   1.451  0.3043  0.5933 -0.0672
 3137TIP3    H130970   5.154   3.786   1.426  0.1659  1.4555 -1.5659
 3137TIP3    H230971   5.011   3.739   1.419  0.4315  0.1994  0.5962
 3138TIP3   OH230972   3.582   3.616   8.409 -0.0985 -0.3882 -0.1797
 3138TIP3    H130973   3.622   3.631   8.324  0.2787 -0.1872  0.0293
 3138TIP3    H230974   3.626   3.538   8.443 -1.0042 -1.1103 -0.6237
 3139TIP3   OH230975   1.390   3.195   8.306 -0.0383  0.1104 -0.2986
 3139TIP3    H130976   1.431   3.179   8.391  1.0709  0.2582 -0.7974
 3139TIP3    H230977   1.324   3.125   8.298  0.6814 -0.6324  0.1476
 3140TIP3   OH230978   5.845   4.759   1.601 -0.0506 -0.2241 -0.4503
 3140TIP3    H130979   5.862   4.766   1.507 -0.0478  0.4491 -0.4089
 3140TIP3    H230980   5.802   4.842   1.623 -1.1879 -0.8809 -0.0984
 3141TIP3   OH230981   1.714   6.206   7.484  0.3663  0.2036 -0.1384
 3141TIP3    H130982   1.784   6.231   7.544 -0.6358 -0.4008  1.3404
 3141TIP3    H230983   1.634   6.214   7.536 -0.3525 -2.5094 -0.6657
 3142TIP3   OH230984   3.482   1.934   0.230 -0.0516 -0.2793 -0.0842
 3142TIP3    H130985   3.399   1.981   0.232  0.1400  0.1541 -1.3056
 3142TIP3    H230986   3.458   1.844   0.207 -0.0399  0.4698 -3.7061
 3143TIP3   OH230987   6.260   6.043   0.621 -0.4675 -0.9736 -0.2412
 3143TIP3    H130988   6.174   6.084   0.616 -0.0428  0.0924  0.5603
 3143TIP3    H230989   6.247   5.965   0.675 -1.2904 -1.9353 -1.7771
 3144TIP3   OH230990   2.482   3.624   8.139  0.3742 -0.3222  0.0728
 3144TIP3    H130991   2.560   3.569   8.139 -0.8572 -2.1383 -0.1855
 3144TIP3    H230992   2.487   3.673   8.057  0.5031 -1.5575 -0.6838
 3145TIP3   OH230993   4.138   1.911   7.935 -0.3149  0.2678  0.3954
 3145TIP3    H130994   4.206   1.946   7.878 -0.1240  2.9962  2.1294
 3145TIP3    H230995   4.109   1.831   7.891  1.7974  0.6849 -1.9862
 3146TIP3   OH230996   5.537   0.309   7.914 -0.0114 -0.2754  0.5860
 3146TIP3    H130997   5.606   0.268   7.966  0.3141 -0.2942  0.1402
 3146TIP3    H230998   5.573   0.315   7.826  0.6714  2.5696  0.9600
 3147TIP3   OH230999   1.589   3.503   1.075  0.6950  0.2371 -0.5603
 3147TIP3    H131000   1.496   3.522   1.086  1.1884  1.5916  2.0190
 3147TIP3    H231001   1.595   3.408   1.086 -0.3506  0.1624 -0.4999
 3148TIP3   OH231002   0.033   6.505   0.710  0.4212 -0.4952  0.3612
 3148TIP3    H131003   0.123   6.525   0.684 -0.5160  1.2102 -1.9013
 3148TIP3    H231004   0.021   6.414   0.685  1.1451 -0.3622 -0.5284
 3149TIP3   OH231005   5.988   1.747   2.534 -0.0602  0.5846  0.3325
 3149TIP3    H131006   5.949   1.813   2.477  0.7496  0.5168 -0.3146
 3149TIP3    H231007   5.943   1.758   2.618  0.6757  2.5812  0.5308
 3150TIP3   OH231008   1.201   5.081   3.289  0.2244 -0.7925  0.7496
 3150TIP3    H131009   1.200   5.146   3.359  0.2570 -0.5073  0.4877
 3150TIP3    H231010   1.110   5.053   3.281 -0.1383  0.5932 -0.3976
 3151TIP3   OH231011   5.790   0.283   0.332  0.2741 -0.2273 -0.4923
 3151TIP3    H131012   5.770   0.368   0.292  0.4588  0.7088  1.3129
 3151TIP3    H231013   5.793   0.222   0.258 -2.9530  0.7075 -1.5857
 3152TIP3   OH231014   1.104   5.441   1.094  0.0319  0.3396 -0.3078
 3152TIP3    H131015   1.181   5.482   1.134 -0.3533  0.3388  0.4498
 3152TIP3    H231016   1.037   5.445   1.161 -0.5314  0.0164 -0.8394
 3153TIP3   OH231017   6.852   0.839   2.156 -0.7503 -0.1027  0.6719
 3153TIP3    H131018   6.777   0.877   2.202 -2.2653 -2.8420  0.6776
 3153TIP3    H231019   6.928   0.865   2.209 -2.1989 -1.1751  3.4601
 3154TIP3   OH231020   6.467   5.038   0.239 -0.1148 -0.2417  0.5816
 3154TIP3    H131021   6.447   5.035   0.145  0.3801 -1.3744  0.4914
 3154TIP3    H231022   6.558   5.009   0.244 -0.3386 -0.8021  1.4654
 3155TIP3   OH231023   1.078   2.685   8.458 -0.5934  0.1683  0.1334
 3155TIP3    H131024   1.056   2.745   8.529  0.2650  0.6775 -0.0127
 3155TIP3    H231025   1.138   2.735   8.403  0.9548 -1.1457  0.5546
 3156TIP3   OH231026   3.325   0.766   0.201 -0.5835  0.4530  0.0924
 3156TIP3    H131027   3.340   0.813   0.283  0.2783 -2.5500  1.8026
 3156TIP3    H231028   3.230   0.753   0.198 -0.5690  0.1010  0.9225
 3157TIP3   OH231029   3.591   2.377   0.901 -0.5510  0.2766  0.1666
 3157TIP3    H131030   3.646   2.453   0.918  0.7370 -0.7411  0.7633
 3157TIP3    H231031   3.591   2.368   0.806 -2.0156  1.9154 -0.0202
 3158TIP3   OH231032   0.061   0.670   8.496  0.6482  0.1511  0.5368
 3158TIP3    H131033   0.124   0.608   8.460  1.9396  1.2119  0.9150
 3158TIP3    H231034  -0.009   0.672   8.430  1.7846  0.1910 -0.7265
 3159TIP3   OH231035   2.360   0.530   2.445 -0.8221  0.4448  0.3403
 3159TIP3    H131036   2.427   0.492   2.389 -0.2955  0.4577  0.9534
 3159TIP3    H231037   2.407   0.562   2.522 -1.2513  2.2317 -0.0725
 3160TIP3   OH231038   4.054   5.959   8.549 -0.0481 -0.1015 -0.0295
 3160TIP3    H131039   4.082   5.894   8.485  0.1925  0.4800 -0.5308
 3160TIP3    H231040   3.968   5.989   8.517  1.4308  2.5124 -1.9543
 3161TIP3   OH231041   3.726   4.724   8.198 -0.6002  0.9386  0.1869
 3161TIP3    H131042   3.672   4.741   8.276 -1.5791 -1.2412  0.0614
 3161TIP3    H231043   3.669   4.672   8.141  0.3487  1.8765 -1.6933
 3162TIP3   OH231044   6.026   5.603   2.128 -0.3026  0.1396 -0.2030
 3162TIP3    H131045   6.011   5.539   2.198  0.1846  0.4995  0.2375
 3162TIP3    H231046   6.110   5.643   2.150 -1.8575  3.0011  1.1712
 3163TIP3   OH231047   4.345   0.394   2.230  0.2959  0.4930 -0.3648
 3163TIP3    H131048   4.357   0.405   2.325 -0.2468  0.3507 -0.2803
 3163TIP3    H231049   4.355   0.482   2.195  2.0981  0.3267 -0.3592
 3164TIP3   OH231050   3.652   0.456   8.575 -0.6466 -0.0398 -0.0762
 3164TIP3    H131051   3.732   0.404   8.575 -0.3594  0.3752 -1.2556
 3164TIP3    H231052   3.581   0.391   8.583 -0.2252 -0.4531  0.3304
 3165TIP3   OH231053   5.346   1.340   8.021 -0.0184  0.2305  0.0006
 3165TIP3    H131054   5.427   1.391   8.022 -1.2885  2.4303  2.1760
 3165TIP3    H231055   5.360   1.273   8.088  1.0129 -1.3741 -1.6979
 3166TIP3   OH231056   2.952   3.620   7.816  0.6497  0.2695 -0.3262
 3166TIP3    H131057   3.043   3.651   7.819  0.2392  1.5778 -0.6987
 3166TIP3    H231058   2.950   3.558   7.744  1.6739 -1.2765  0.9215
 3167TIP3   OH231059   1.687   4.454   0.894  0.4640  0.3900 -0.6963
 3167TIP3    H131060   1.714   4.412   0.976  0.3752  0.4277 -0.6478
 3167TIP3    H231061   1.732   4.538   0.894 -0.8934  1.1449  0.1491
 3168TIP3   OH231062   4.364   2.799   8.045  0.7387 -0.1976 -0.1511
 3168TIP3    H131063   4.290   2.853   8.016  0.4127  0.6931  2.1473
 3168TIP3    H231064   4.345   2.712   8.009 -0.4351  0.4411 -1.1731
 3169TIP3   OH231065   4.335   1.019   1.514 -0.3214 -0.0705 -0.2639
 3169TIP3    H131066   4.298   1.063   1.590  0.9883 -0.1354  0.4537
 3169TIP3    H231067   4.317   0.926   1.529  0.4664 -0.1469  0.3110
 3170TIP3   OH231068   1.345   0.932   1.816 -0.3275  0.8863 -0.4188
 3170TIP3    H131069   1.422   0.926   1.759 -0.1878  0.3541 -0.1767
 3170TIP3    H231070   1.272   0.942   1.756 -0.0158  2.0748 -0.6361
 3171TIP3   OH231071   0.875   1.505   6.601  0.2000  0.2118  0.1519
 3171TIP3    H131072   0.832   1.424   6.629  0.0566  0.7083  1.4358
 3171TIP3    H231073   0.847   1.517   6.511  0.1990 -1.1467 -0.0556
 3172TIP3   OH231074   1.639   3.103   0.898  0.0883  0.1285  0.2598
 3172TIP3    H131075   1.676   3.189   0.875 -2.4734  1.4445  0.7207
 3172TIP3    H231076   1.612   3.113   0.989 -1.3021 -0.7864 -0.0365
 3173TIP3   OH231077   6.437   4.704   7.594  0.2030  0.0534 -0.4543
 3173TIP3    H131078   6.407   4.757   7.520 -0.1833  0.4818  0.0002
 3173TIP3    H231079   6.408   4.615   7.573  0.5012  0.0926 -1.0302
 3174TIP3   OH231080   4.104   6.692   0.237  0.4767  0.3619 -0.1767
 3174TIP3    H131081   4.045   6.631   0.195  0.7524  1.8037 -2.8513
 3174TIP3    H231082   4.048   6.750   0.288  0.0112 -0.6264  0.4635
 3175TIP3   OH231083   1.464   2.924   8.277  0.4400  0.7397  0.2278
 3175TIP3    H131084   1.466   2.929   8.181 -0.0113 -1.7759  0.0315
 3175TIP3    H231085   1.554   2.944   8.304  0.5100  1.7397 -0.6576
 3176TIP3   OH231086   3.833   4.988   1.007  0.5131 -0.2248 -0.4954
 3176TIP3    H131087   3.879   5.045   1.069  1.7193 -0.7021 -0.9217
 3176TIP3    H231088   3.746   4.977   1.046  0.7624  0.6411  0.3775
 3177TIP3   OH231089   0.062   0.154   8.127  0.2198 -0.0173 -0.0007
 3177TIP3    H131090   0.105   0.239   8.116  0.1135  0.0357 -0.0033
 3177TIP3    H231091   0.008   0.165   8.205  0.4608 -0.1851  0.1934
 3178TIP3   OH231092   0.186   0.304   1.499 -0.0300  0.3109  0.0331
 3178TIP3    H131093   0.210   0.341   1.584 -1.4603  1.1028  0.1328
 3178TIP3    H231094   0.261   0.323   1.442  0.8965 -0.1342  1.0704
 3179TIP3   OH231095   3.875   6.796   1.737  0.1250 -0.7400  0.0357
 3179TIP3    H131096   3.803   6.804   1.800  0.4946 -0.6043  0.4474
 3179TIP3    H231097   3.954   6.805   1.790  0.4377  1.1115 -0.6773
 3180TIP3   OH231098   2.211   3.405   8.043  0.0759 -0.2144  0.7657
 3180TIP3    H131099   2.152   3.340   8.081 -1.3167  0.9456  0.6743
 3180TIP3    H231100   2.255   3.359   7.972 -1.7486 -0.7689 -0.0721
 3181TIP3   OH231101   1.375   1.196   7.701 -0.1099  0.7949 -0.0060
 3181TIP3    H131102   1.461   1.219   7.736  0.7780  0.8670 -2.0805
 3181TIP3    H231103   1.352   1.114   7.746  1.8414 -0.1534 -0.6239
 3182TIP3   OH231104   3.662   3.967   6.964  0.0099  0.0873  0.2429
 3182TIP3    H131105   3.648   4.046   6.912  0.6943  0.5986  0.8189
 3182TIP3    H231106   3.731   3.920   6.917 -0.0949  0.0435  0.1324
 3183TIP3   OH231107   5.544   5.608   1.754  0.0502  0.7218 -0.4095
 3183TIP3    H131108   5.611   5.589   1.688 -0.3420  0.9926 -0.8893
 3183TIP3    H231109   5.491   5.678   1.715 -0.2465  0.8123  0.1493
 3184TIP3   OH231110   3.458   0.970   6.906 -0.1238 -0.0203  0.0138
 3184TIP3    H131111   3.391   0.950   6.971  0.1823  0.9853  0.6713
 3184TIP3    H231112   3.420   1.040   6.853 -0.3481 -0.7920 -0.8698
 3185TIP3   OH231113   0.583   5.667   2.901 -0.1387  0.3604  0.1602
 3185TIP3    H131114   0.556   5.697   2.988  0.5499 -0.8977  0.8379
 3185TIP3    H231115   0.510   5.691   2.844 -0.5971  1.2194  1.0850
 3186TIP3   OH231116   3.524   1.184   3.007 -0.4126 -0.5829 -0.3387
 3186TIP3    H131117   3.620   1.184   3.002 -0.4098 -0.2933 -0.3091
 3186TIP3    H231118   3.504   1.114   3.070 -0.1156  0.7807  1.3602
 3187TIP3   OH231119   0.296   4.819   0.494  0.2480 -0.0894  0.1252
 3187TIP3    H131120   0.367   4.804   0.557  0.3691 -0.5834 -0.1207
 3187TIP3    H231121   0.335   4.877   0.429 -0.3683  1.7779  1.3343
 3188TIP3   OH231122   5.377   0.473   2.156  0.0405  0.0470 -0.0490
 3188TIP3    H131123   5.349   0.562   2.179  0.5143 -0.1611  1.4428
 3188TIP3    H231124   5.350   0.419   2.230 -0.8022 -1.1955 -1.2078
 3189TIP3   OH231125   3.180   5.740   7.718 -0.0289 -0.2227 -0.3655
 3189TIP3    H131126   3.137   5.741   7.632  0.7925 -2.5696 -0.8819
 3189TIP3    H231127   3.214   5.828   7.729 -0.8741  0.3611 -2.0880
 3190TIP3   OH231128   3.905   0.930   1.944  0.1177 -0.0306 -0.5601
 3190TIP3    H131129   3.904   1.015   1.901 -0.6515 -0.3636 -1.2133
 3190TIP3    H231130   3.813   0.904   1.949  0.1006  0.2628  1.8473
 3191TIP3   OH231131   2.183   4.911   2.044 -0.0051  0.1883  0.4975
 3191TIP3    H131132   2.191   4.858   1.964  1.1441 -2.5603  2.2713
 3191TIP3    H231133   2.095   4.949   2.039 -1.6268 -3.2585 -0.2537
 3192TIP3   OH231134   1.632   5.883   1.165 -0.0142  0.4677  0.2722
 3192TIP3    H131135   1.578   5.933   1.104 -0.4498  1.5353  1.4845
 3192TIP3    H231136   1.569   5.833   1.217  0.3175 -0.0809  0.1474
 3193TIP3   OH231137   2.750   3.283   0.281  0.0795  0.0551 -0.2872
 3193TIP3    H131138   2.711   3.326   0.205 -1.2289 -0.4609  0.0638
 3193TIP3    H231139   2.686   3.296   0.351  2.2663  2.5695  1.4448
 3194TIP3   OH231140   6.246   2.313   7.383 -0.0789  0.2254 -0.1541
 3194TIP3    H131141   6.252   2.292   7.476  1.5315  0.1707 -0.2415
 3194TIP3    H231142   6.175   2.256   7.351  0.2023 -0.6932  0.7879
 3195TIP3   OH231143   3.652   1.880   7.435  0.0808 -0.5261  0.6664
 3195TIP3    H131144   3.622   1.801   7.479 -2.4990 -0.9743 -1.6446
 3195TIP3    H231145   3.744   1.863   7.415 -0.1060 -2.4479  1.2491
 3196TIP3   OH231146   3.341   3.713   8.442 -0.8213 -0.3757  0.2648
 3196TIP3    H131147   3.429   3.680   8.458 -1.1398 -1.1591  0.4426
 3196TIP3    H231148   3.344   3.746   8.352 -0.2101  0.0944  0.4502
 3197TIP3   OH231149   4.211   0.339   0.955 -0.2107  0.2340  0.8898
 3197TIP3    H131150   4.302   0.365   0.973  1.2516 -2.2159 -2.0888
 3197TIP3    H231151   4.175   0.412   0.905  1.0777  0.1416 -0.2424
 3198TIP3   OH231152   1.467   6.693   0.818  0.6234 -0.0473 -0.1754
 3198TIP3    H131153   1.541   6.671   0.874  0.1406 -0.1817  0.4090
 3198TIP3    H231154   1.392   6.700   0.877 -0.1232 -1.2773 -0.9229
 3199TIP3   OH231155   5.506   3.745   0.130  0.7610  0.9848  0.1037
 3199TIP3    H131156   5.502   3.795   0.048 -2.6947  0.6857 -0.0500
 3199TIP3    H231157   5.464   3.801   0.195 -0.8829 -0.6178  0.5116
 3200TIP3   OH231158   4.956   6.185   0.197  0.6185  0.6290 -0.2679
 3200TIP3    H131159   5.010   6.263   0.184 -0.3103  1.3249 -0.0749
 3200TIP3    H231160   5.013   6.112   0.176  1.8933  1.2967  0.7307
 3201TIP3   OH231161   1.043   0.318   8.470 -0.2796  0.1280 -0.2596
 3201TIP3    H131162   1.044   0.368   8.388 -0.9663  0.3297 -0.1515
 3201TIP3    H231163   1.075   0.231   8.446 -1.3398 -0.0939 -0.9302
 3202TIP3   OH231164   0.687   0.481   2.312  0.0708 -0.0061  0.0238
 3202TIP3    H131165   0.708   0.502   2.221  2.7092 -1.9519  0.0397
 3202TIP3    H231166   0.614   0.419   2.306  0.9290 -0.9796 -0.9138
 3203TIP3   OH231167   0.370   4.066   8.280 -0.6680  0.0038  0.4239
 3203TIP3    H131168   0.367   4.078   8.375  1.8054  1.9659  0.3646
 3203TIP3    H231169   0.309   4.131   8.245 -1.7454 -0.8681  0.6229
 3204TIP3   OH231170   5.732   5.850   8.166  0.1309  0.2627 -0.5594
 3204TIP3    H131171   5.730   5.782   8.099 -0.5962  0.9736 -1.2934
 3204TIP3    H231172   5.645   5.891   8.161  0.5655  1.2698 -0.1761
 3205TIP3   OH231173   5.306   3.578   0.381  0.3800  0.0781 -0.3151
 3205TIP3    H131174   5.246   3.519   0.336  0.8692 -1.3239  0.7714
 3205TIP3    H231175   5.249   3.636   0.432 -0.1043 -1.1612  0.6140
 3206TIP3   OH231176   0.758   0.391   0.221  0.1634 -0.2560  0.0847
 3206TIP3    H131177   0.841   0.433   0.200  1.8729 -1.3075  3.8848
 3206TIP3    H231178   0.764   0.304   0.180 -1.0129  0.9928 -3.0914
 3207TIP3   OH231179   1.549   2.693   1.048  0.0434  0.0877 -0.0749
 3207TIP3    H131180   1.616   2.685   0.980  0.6071  0.3269  0.4417
 3207TIP3    H231181   1.540   2.605   1.084  0.8752  0.2689  0.5933
 3208TIP3   OH231182   4.478   0.088   1.509 -0.4991 -0.0587 -0.3500
 3208TIP3    H131183   4.486   0.126   1.422 -0.4772 -0.7574 -0.6537
 3208TIP3    H231184   4.495   0.162   1.569 -1.1944  0.5867 -0.9196
 3209TIP3   OH231185   6.446   1.754   7.323  0.8081  0.3622  0.4696
 3209TIP3    H131186   6.425   1.746   7.416  0.4449  0.1094  0.3675
 3209TIP3    H231187   6.392   1.826   7.293  0.6214  0.1789  0.3646
 3210TIP3   OH231188   6.905   3.203   0.449 -0.1467  0.4628 -0.2011
 3210TIP3    H131189   6.948   3.255   0.517  0.2570  0.9153 -0.7830
 3210TIP3    H231190   6.822   3.248   0.433 -0.4956  0.0335  0.3809
 3211TIP3   OH231191   0.521   1.490   8.059  0.0194  0.4091  0.4054
 3211TIP3    H131192   0.581   1.509   8.131  0.1698 -2.5480  1.2082
 3211TIP3    H231193   0.569   1.427   8.005 -1.4602 -0.1534 -0.2887
 3212TIP3   OH231194   3.326   1.905   2.466 -0.2496  0.1109  0.7565
 3212TIP3    H131195   3.281   1.894   2.550  1.7136  1.8290  2.1120
 3212TIP3    H231196   3.293   1.989   2.432 -2.8194 -1.5980 -1.4982
 3213TIP3   OH231197   3.825   1.816   1.595 -0.7019 -0.5827  0.2133
 3213TIP3    H131198   3.755   1.872   1.562 -0.5223 -0.9867 -0.8944
 3213TIP3    H231199   3.842   1.754   1.524  0.4302 -0.8101  0.6560
 3214TIP3   OH231200   2.626   1.148   1.745 -0.0899  0.1646 -0.0680
 3214TIP3    H131201   2.679   1.225   1.766 -0.7051  0.3502  0.8811
 3214TIP3    H231202   2.640   1.088   1.819  1.0563 -1.0252 -1.1896
 3215TIP3   OH231203   4.394   5.170   7.870  0.2616  0.0291  0.6169
 3215TIP3    H131204   4.378   5.208   7.783  0.3155 -0.1755  0.5181
 3215TIP3    H231205   4.411   5.246   7.926  0.0968  0.1705  0.4768
 3216TIP3   OH231206   4.057   3.010   0.537  0.3712 -0.4184  0.9597
 3216TIP3    H131207   4.148   3.037   0.528 -0.0585  0.6625 -0.6133
 3216TIP3    H231208   4.036   3.025   0.629  0.5892  3.4809  0.5340
 3217TIP3   OH231209   2.001   0.271   7.997 -0.3780  0.1795  0.2603
 3217TIP3    H131210   1.925   0.231   8.040  1.0812 -2.6497  0.3973
 3217TIP3    H231211   1.984   0.260   7.903 -1.4485  2.2516  0.1620
 3218TIP3   OH231212   1.435   2.810   1.261 -0.1585 -0.3717 -0.2050
 3218TIP3    H131213   1.511   2.774   1.216  0.4128  0.1749  0.3080
 3218TIP3    H231214   1.387   2.858   1.193  1.9343  2.4592  0.1333
 3219TIP3   OH231215   1.764   6.333   2.690  0.7833  0.4004 -0.5570
 3219TIP3    H131216   1.809   6.417   2.684  0.6300  0.4732 -0.6852
 3219TIP3    H231217   1.806   6.288   2.764  1.7065  0.0959 -1.2438
 3220TIP3   OH231218   1.590   4.409   0.355 -0.2581 -0.9620 -0.1305
 3220TIP3    H131219   1.605   4.418   0.449  0.1085 -1.5285 -0.1280
 3220TIP3    H231220   1.637   4.482   0.315 -1.8923  0.3359  0.2334
 3221TIP3   OH231221   1.328   1.282   0.569 -0.5036 -0.2434  0.0880
 3221TIP3    H131222   1.373   1.354   0.525 -1.4132 -0.6638 -1.6335
 3221TIP3    H231223   1.325   1.308   0.661  1.7213  0.5587  0.0030
 3222TIP3   OH231224   2.749   0.067   1.080  0.0143 -0.0016 -0.3011
 3222TIP3    H131225   2.789   0.153   1.070 -1.5031  0.5407 -2.4102
 3222TIP3    H231226   2.714   0.046   0.994 -0.1011 -2.5400  0.2689
 3223TIP3   OH231227   3.718   4.156   2.165  0.0760 -0.2908  0.2379
 3223TIP3    H131228   3.721   4.215   2.240 -1.7645  0.1163  0.0467
 3223TIP3    H231229   3.736   4.070   2.201 -2.6822 -0.4195  1.5885
 3224TIP3   OH231230   4.869   1.810   8.185 -0.2693 -0.1526  0.4634
 3224TIP3    H131231   4.936   1.873   8.211 -0.5804  0.4095 -0.0652
 3224TIP3    H231232   4.916   1.746   8.131 -0.0735 -0.0109  0.4646
 3225TIP3   OH231233   2.002   0.781   1.885 -0.2301 -0.1017  0.0622
 3225TIP3    H131234   2.046   0.844   1.829 -0.8261  0.1018 -0.1838
 3225TIP3    H231235   1.998   0.823   1.971 -1.6161  0.7008 -0.3476
 3226TIP3   OH231236   2.841   1.586   8.558  0.6303 -0.0272 -0.1773
 3226TIP3    H131237   2.909   1.531   8.520 -0.2551 -2.0048  0.9246
 3226TIP3    H231238   2.761   1.534   8.548 -0.0962  0.6375  1.7413
 3227TIP3   OH231239   1.760   1.749   1.032 -0.2917  0.9465 -0.4083
 3227TIP3    H131240   1.686   1.732   1.090  1.3137 -2.5219  0.8558
 3227TIP3    H231241   1.837   1.747   1.089  0.9459  4.7879 -1.6147
 3228TIP3   OH231242   6.259   6.095   1.692 -0.5469 -0.1725 -0.1277
 3228TIP3    H131243   6.255   6.190   1.684 -0.0400 -0.1909 -0.6328
 3228TIP3    H231244   6.184   6.073   1.747 -0.7669  0.5011 -0.1454
 3229TIP3   OH231245   3.047   1.011   1.993  0.1814  0.1893  0.6278
 3229TIP3    H131246   3.122   0.952   1.992 -0.6924 -1.0784 -2.3591
 3229TIP3    H231247   2.991   0.978   2.064  1.3233 -0.3347  1.3083
 3230TIP3   OH231248   6.833   5.720   7.720 -0.0301 -0.0399 -0.2109
 3230TIP3    H131249   6.863   5.707   7.630 -0.2939  0.9737 -0.4483
 3230TIP3    H231250   6.911   5.752   7.766 -0.5490  2.1196 -0.7196
 3231TIP3   OH231251   4.886   2.056   7.542  0.2008 -0.0590 -0.2419
 3231TIP3    H131252   4.896   2.076   7.635 -0.8527 -0.0196 -0.1294
 3231TIP3    H231253   4.842   2.132   7.505  0.9644  0.0935 -0.8579
 3232TIP3   OH231254   0.190   0.412   8.174 -0.6046  0.1032 -0.1286
 3232TIP3    H131255   0.270   0.463   8.166  0.5126 -1.2490  1.6192
 3232TIP3    H231256   0.177   0.402   8.268 -2.1873 -0.6741 -0.3987
 3233TIP3   OH231257   2.062   0.634   3.106 -0.2441 -0.0078 -0.2852
 3233TIP3    H131258   2.063   0.582   3.025  1.2067 -0.3477 -0.0748
 3233TIP3    H231259   2.089   0.573   3.174  1.0836  0.8676  0.0302
 3234TIP3   OH231260   1.058   3.702   1.905  0.2285 -0.0815  0.2659
 3234TIP3    H131261   1.002   3.753   1.847 -0.5252 -0.6197  0.4974
 3234TIP3    H231262   1.040   3.611   1.881  0.3870 -0.2844  0.9058
 3235TIP3   OH231263   6.514   4.081   0.971  0.2612  0.0207  0.6108
 3235TIP3    H131264   6.475   3.999   0.941 -0.2431  0.6056 -0.3835
 3235TIP3    H231265   6.606   4.059   0.988  0.1131 -0.7629  0.4345
 3236TIP3   OH231266   4.087   1.687   1.945 -0.1385  0.7757 -0.0526
 3236TIP3    H131267   4.093   1.641   2.029 -1.6689  0.9908  0.1971
 3236TIP3    H231268   4.178   1.703   1.920  0.3677 -0.5538  0.8629
 3237TIP3   OH231269   2.521   1.984   1.515  0.3872  0.4271 -0.0386
 3237TIP3    H131270   2.493   2.046   1.448 -0.7994  0.0697  0.1042
 3237TIP3    H231271   2.489   2.020   1.597  1.4417  0.6278  0.3076
 3238TIP3   OH231272   2.532   5.500   1.825 -0.1675  0.3762 -0.2250
 3238TIP3    H131273   2.516   5.452   1.744 -1.3783  0.1570  0.1187
 3238TIP3    H231274   2.445   5.513   1.862  0.5068 -2.0821  2.5177
 3239TIP3   OH231275   4.293   5.123   8.181 -0.1969 -0.0960  0.4775
 3239TIP3    H131276   4.316   5.119   8.273 -0.7142  2.6335  0.8362
 3239TIP3    H231277   4.348   5.193   8.145  0.1933 -1.2804 -1.3798
 3240TIP3   OH231278   6.445   6.817   7.111  0.5319  0.2264  0.4040
 3240TIP3    H131279   6.369   6.775   7.151  1.0926 -0.3150  0.9161
 3240TIP3    H231280   6.488   6.747   7.062  1.9388 -0.0386  1.9486
 3241TIP3   OH231281   4.776   6.064   1.346 -0.2828 -0.0441 -0.0747
 3241TIP3    H131282   4.692   6.073   1.391 -0.4111  0.7607 -0.4626
 3241TIP3    H231283   4.796   5.971   1.351 -2.3870 -0.6795 -2.1113
 3242TIP3   OH231284   3.316   2.500   7.245  0.1755  0.6107 -0.2707
 3242TIP3    H131285   3.346   2.588   7.225 -0.9643  1.1236  0.1973
 3242TIP3    H231286   3.243   2.485   7.186 -1.8447  1.3325  1.8714
 3243TIP3   OH231287   6.481   5.805   7.277  0.2072  0.5856  0.2470
 3243TIP3    H131288   6.443   5.885   7.240  1.1384  1.0857  0.3357
 3243TIP3    H231289   6.413   5.771   7.335 -0.0522  1.5444  0.5243
 3244TIP3   OH231290   4.039   2.528   2.699  0.0548 -0.2335  0.1367
 3244TIP3    H131291   4.055   2.621   2.719  1.8095 -0.5059  0.1950
 3244TIP3    H231292   4.007   2.529   2.609  1.1274  0.3922 -0.2684
 3245TIP3   OH231293   4.252   0.671   1.357  0.1066  0.4343  0.2582
 3245TIP3    H131294   4.159   0.680   1.379 -0.5652  0.2543 -2.2728
 3245TIP3    H231295   4.268   0.577   1.358 -0.1507  0.3672 -0.7369
 3246TIP3   OH231296   4.418   6.053   1.747  0.4121 -0.0053 -0.1244
 3246TIP3    H131297   4.459   6.091   1.825  0.2304 -0.5901  0.2619
 3246TIP3    H231298   4.489   6.010   1.700  0.4683  0.0960 -0.1333
 3247TIP3   OH231299   0.213   2.862   7.816  0.2655 -0.2923  0.7887
 3247TIP3    H131300   0.292   2.895   7.859 -0.0218 -0.1076  1.1859
 3247TIP3    H231301   0.169   2.941   7.783  1.2049 -0.5170 -1.1560
 3248TIP3   OH231302   0.021   0.966   0.400  0.3286 -0.5946  0.0020
 3248TIP3    H131303   0.022   0.870   0.404  1.3829 -0.5559  1.9735
 3248TIP3    H231304  -0.067   0.991   0.427  0.1411 -1.0049 -0.2277
 3249TIP3   OH231305   2.096   5.870   0.662 -0.1719 -0.6361 -0.0026
 3249TIP3    H131306   2.091   5.903   0.751  0.5198 -2.5842  0.8133
 3249TIP3    H231307   2.169   5.919   0.623  0.5598 -0.8653  1.0261
 3250TIP3   OH231308   4.055   5.525   8.449  0.3288 -0.2680 -0.1657
 3250TIP3    H131309   4.077   5.529   8.542 -1.8684 -1.6967  0.4916
 3250TIP3    H231310   4.113   5.457   8.414  1.2151  0.3246  0.1195
 3251TIP3   OH231311   3.700   3.494   2.288 -0.4907  0.3132  0.3831
 3251TIP3    H131312   3.692   3.521   2.197 -0.1350  0.0921  0.2890
 3251TIP3    H231313   3.711   3.399   2.285  2.9145  0.5838  0.4441
 3252TIP3   OH231314   3.641   1.529   0.917  0.1695 -0.8406 -0.2601
 3252TIP3    H131315   3.637   1.521   1.012  0.4733  0.3159 -0.1306
 3252TIP3    H231316   3.728   1.496   0.893 -0.1368 -1.6959 -0.2106
 3253TIP3   OH231317   3.790   5.434   1.973  0.9265 -0.7547  0.2085
 3253TIP3    H131318   3.799   5.406   1.882  2.0234  1.0994 -0.3222
 3253TIP3    H231319   3.718   5.382   2.008  0.0683 -1.0811 -1.9092
 3254TIP3   OH231320   1.618   3.908   0.065  0.2853 -0.5999  0.1263
 3254TIP3    H131321   1.622   3.916   0.161 -0.5243  0.5370  0.0833
 3254TIP3    H231322   1.575   3.824   0.050  2.6783 -2.0137  0.7116
 3255TIP3   OH231323   2.761   6.744   0.195  0.2988  0.2256  0.0877
 3255TIP3    H131324   2.719   6.762   0.111 -1.6097  2.1972  1.3566
 3255TIP3    H231325   2.789   6.830   0.226  1.0674 -0.4796  1.4209
 3256TIP3   OH231326   2.278   5.197   1.848 -0.3808  0.0140  0.4279
 3256TIP3    H131327   2.247   5.128   1.789 -1.9085 -0.0625  1.2735
 3256TIP3    H231328   2.356   5.160   1.889  0.4151 -0.1228 -1.1351
 3257TIP3   OH231329   2.029   2.539   7.547  0.7637  0.0141  0.4048
 3257TIP3    H131330   1.999   2.563   7.635  2.0313  0.1585  0.8088
 3257TIP3    H231331   2.027   2.444   7.546 -0.2563  0.0273  0.2220
 3258TIP3   OH231332   1.968   0.560   2.581 -0.1159 -0.4288  0.1272
 3258TIP3    H131333   2.003   0.526   2.498 -1.7785 -0.8667 -0.4521
 3258TIP3    H231334   1.961   0.483   2.638  1.9873  0.0383  1.0802
 3259TIP3   OH231335   2.959   1.142   1.648  0.5244  0.0869 -0.2667
 3259TIP3    H131336   2.990   1.225   1.612  2.4139 -0.2275  0.5434
 3259TIP3    H231337   2.926   1.164   1.735  1.2789 -0.0410  0.0566
 3260TIP3   OH231338   4.529   5.036   0.794 -0.2171  0.4366 -0.8794
 3260TIP3    H131339   4.591   5.019   0.864 -1.9526  0.3458  0.6972
 3260TIP3    H231340   4.477   4.956   0.788 -1.9187  1.4558 -0.2970
 3261TIP3   OH231341   0.083   6.095   0.706  0.2987 -0.8404 -0.2386
 3261TIP3    H131342   0.011   6.154   0.729  1.8555  1.1184 -0.0992
 3261TIP3    H231343   0.076   6.023   0.769 -1.3561 -0.5508 -0.0617
 3262TIP3   OH231344   1.255   4.502   1.657 -0.2946  0.3585 -0.8797
 3262TIP3    H131345   1.208   4.580   1.686 -0.6403  0.4552 -1.6726
 3262TIP3    H231346   1.187   4.439   1.633 -0.0684 -1.0633  1.8757
 3263TIP3   OH231347   4.073   4.558   2.202 -0.1692 -0.5159  0.2077
 3263TIP3    H131348   4.117   4.642   2.189 -1.1320 -0.2862 -1.9841
 3263TIP3    H231349   4.135   4.506   2.254  0.3833  1.5668  1.7469
 3264TIP3   OH231350   4.998   1.967   0.840  0.2912 -0.3978  0.6208
 3264TIP3    H131351   5.007   1.895   0.903 -0.6869 -0.9985  0.1064
 3264TIP3    H231352   5.014   2.046   0.891 -1.5012 -0.7938  1.8847
 3265TIP3   OH231353   6.088   1.176   1.492 -0.3853 -0.5485 -0.8402
 3265TIP3    H131354   6.075   1.130   1.575 -0.0710 -0.4480 -0.7337
 3265TIP3    H231355   6.095   1.268   1.517  0.1537 -0.5630 -0.9291
 3266TIP3   OH231356   6.390   3.325   8.277 -0.4789 -0.1129  0.4214
 3266TIP3    H131357   6.383   3.414   8.312 -0.7096  0.4058 -0.9064
 3266TIP3    H231358   6.484   3.313   8.261 -0.1761 -0.8694  2.4408
 3267TIP3   OH231359   2.832   0.433   0.342 -0.1533 -0.4267 -0.1475
 3267TIP3    H131360   2.758   0.484   0.309  0.0571  0.3235  0.5261
 3267TIP3    H231361   2.875   0.399   0.263  1.0383  2.3030 -0.7722
 3268TIP3   OH231362   4.371   4.431   1.761  0.0784  0.4225 -0.0584
 3268TIP3    H131363   4.442   4.369   1.779  1.9628  2.4336 -0.0897
 3268TIP3    H231364   4.294   4.393   1.804  1.1656 -1.8214  0.0391
 3269TIP3   OH231365   3.630   5.840   0.862  0.0584  0.2330  0.0417
 3269TIP3    H131366   3.714   5.884   0.847 -0.1577  0.1488 -1.6063
 3269TIP3    H231367   3.595   5.882   0.941  0.5564  1.9960 -0.6224
 3270TIP3   OH231368   2.561   3.526   0.432 -0.1942 -0.0017 -0.3651
 3270TIP3    H131369   2.579   3.440   0.469 -1.6370 -0.2682 -0.2073
 3270TIP3    H231370   2.551   3.583   0.508 -1.1714 -0.1273 -0.3821
 3271TIP3   OH231371   6.141   1.212   8.363 -0.0525 -0.1945 -0.1128
 3271TIP3    H131372   6.120   1.137   8.306  0.8120 -0.3079 -0.3005
 3271TIP3    H231373   6.211   1.258   8.317  0.9944 -0.5492  1.0620
 3272TIP3   OH231374   1.334   0.559   2.298 -0.5648  0.1430  0.7209
 3272TIP3    H131375   1.354   0.515   2.381  0.9073 -0.6270  0.0064
 3272TIP3    H231376   1.378   0.506   2.232 -0.7625  1.3708 -0.4414
 3273TIP3   OH231377   3.585   5.877   8.341  0.0427  0.4995  0.0254
 3273TIP3    H131378   3.607   5.899   8.432 -1.4501  2.0630  0.0538
 3273TIP3    H231379   3.670   5.875   8.297  1.0930 -2.6385  1.8256
 3274TIP3   OH231380   4.876   5.553   8.110 -0.8011 -0.4396  0.1407
 3274TIP3    H131381   4.940   5.505   8.163  0.1329  0.0066 -0.5552
 3274TIP3    H231382   4.887   5.519   8.022 -2.0831 -0.9065  0.1412
 3275TIP3   OH231383   5.300   1.573   8.255 -0.6073  0.0639 -0.2789
 3275TIP3    H131384   5.289   1.587   8.349 -1.4504 -0.7722 -0.2367
 3275TIP3    H231385   5.249   1.495   8.237  0.0847 -0.1595 -1.3265
 3276TIP3   OH231386   0.283   1.216   8.479  0.0583  0.3542 -0.3940
 3276TIP3    H131387   0.263   1.123   8.489 -0.0341  0.2845 -1.1497
 3276TIP3    H231388   0.312   1.244   8.566 -0.6890 -0.1869  0.0386
 3277TIP3   OH231389   1.465   6.595   7.959  0.2486  0.2416 -0.0948
 3277TIP3    H131390   1.524   6.615   8.031  1.0352 -1.9488 -0.0588
 3277TIP3    H231391   1.413   6.521   7.989 -0.4257  0.2124 -1.2538
 3278TIP3   OH231392   2.986   5.903   7.062  0.1235  0.1233 -0.2884
 3278TIP3    H131393   3.069   5.896   7.109  0.2045  0.3593 -0.3995
 3278TIP3    H231394   3.011   5.909   6.970  0.0113  0.9101 -0.2684
 3279TIP3   OH231395   5.844   6.837   1.089 -0.0014  0.0480  0.3511
 3279TIP3    H131396   5.759   6.828   1.132  0.9456  0.2213  2.3938
 3279TIP3    H231397   5.829   6.901   1.019 -1.6475 -0.2961  0.3633
 3280TIP3   OH231398   2.158   3.730   7.279 -0.3935  0.2066  0.0651
 3280TIP3    H131399   2.168   3.665   7.348  0.0981 -1.4797 -1.5122
 3280TIP3    H231400   2.113   3.684   7.208  0.1254  1.5129 -1.1855
 3281TIP3   OH231401   4.344   4.368   8.542  0.0657 -0.0479  0.0750
 3281TIP3    H131402   4.250   4.369   8.559  0.1967 -0.1965  0.8278
 3281TIP3    H231403   4.353   4.409   8.456 -0.3915  3.3066  1.4978
 3282TIP3   OH231404   4.022   0.385   2.879 -0.3378  0.3123  0.1402
 3282TIP3    H131405   4.066   0.310   2.919  0.3086  0.1095 -0.9124
 3282TIP3    H231406   4.022   0.366   2.785 -1.0777  1.1574 -0.0476
 3283TIP3   OH231407   3.070   2.766   8.292  0.0409 -0.0032 -0.0022
 3283TIP3    H131408   3.158   2.729   8.290  0.6290  1.2208  1.3620
 3283TIP3    H231409   3.012   2.692   8.271  1.3867 -0.7282 -1.3675
 3284TIP3   OH231410   2.571   5.975   6.763  0.3389  0.0451 -0.5639
 3284TIP3    H131411   2.576   5.884   6.731  0.0056 -0.8538  1.7582
 3284TIP3    H231412   2.480   5.999   6.749  0.1973 -0.3262 -0.2952
 3285TIP3   OH231413   5.403   4.378   1.382 -0.2535 -0.0762 -0.1271
 3285TIP3    H131414   5.429   4.445   1.444 -1.3523 -0.4341  0.7688
 3285TIP3    H231415   5.332   4.418   1.331  0.7517  0.2733 -1.2949
 3286TIP3   OH231416   2.040   2.195   0.561 -0.1316 -0.1554 -0.0080
 3286TIP3    H131417   2.064   2.123   0.503 -0.0352 -0.4410  0.3847
 3286TIP3    H231418   1.948   2.180   0.580  0.0185 -0.4583  0.4783
 3287TIP3   OH231419   4.577   2.401   0.188 -0.2337 -0.5257  0.0116
 3287TIP3    H131420   4.562   2.490   0.155  0.6405 -0.2115  0.4244
 3287TIP3    H231421   4.491   2.360   0.186 -0.5726  0.1874 -0.6027
 3288TIP3   OH231422   4.960   1.497   6.303  0.1365  0.1221  0.1090
 3288TIP3    H131423   4.920   1.417   6.336 -0.7619  0.8719  0.8842
 3288TIP3    H231424   5.053   1.476   6.295 -0.0889 -0.9974  0.2669
 3289TIP3   OH231425   3.057   6.343   8.455 -0.0908  0.2588 -0.6682
 3289TIP3    H131426   3.011   6.275   8.505  0.4159  0.9439  0.7791
 3289TIP3    H231427   3.148   6.339   8.486  0.0435  1.3137 -0.8778
 3290TIP3   OH231428   2.858   0.814   0.638 -0.0809  0.2304  0.2207
 3290TIP3    H131429   2.942   0.804   0.593  0.5724  0.7553  1.2808
 3290TIP3    H231430   2.832   0.725   0.660  0.0207  0.0390 -0.3987
 3291TIP3   OH231431   2.212   1.714   7.513 -0.1318  0.9767 -0.5534
 3291TIP3    H131432   2.173   1.635   7.474 -0.7142  1.1854 -0.3959
 3291TIP3    H231433   2.266   1.750   7.443  0.6749  0.0791 -0.4200
 3292TIP3   OH231434   5.118   2.182   1.879  0.6274 -0.5489  0.2599
 3292TIP3    H131435   5.031   2.165   1.842  0.1917  0.0981  0.9639
 3292TIP3    H231436   5.113   2.148   1.968  0.9000  0.0126  0.4960
 3293TIP3   OH231437   5.202   5.789   1.482  0.1588 -0.4421  0.6162
 3293TIP3    H131438   5.236   5.750   1.562  0.4858 -0.1502  0.6239
 3293TIP3    H231439   5.178   5.878   1.507  1.5384  0.1046  0.0925
 3294TIP3   OH231440   5.222   5.195   7.468 -0.2176 -0.1926  0.3609
 3294TIP3    H131441   5.216   5.233   7.381 -0.3125  0.0208  0.4590
 3294TIP3    H231442   5.314   5.205   7.492 -0.6863  2.4322  1.4631
 3295TIP3   OH231443   4.113   5.639   1.002 -0.0655  0.1482 -0.2760
 3295TIP3    H131444   4.141   5.560   0.956 -1.0187 -0.6250  0.4144
 3295TIP3    H231445   4.120   5.616   1.095 -0.7917  0.7161 -0.0694
 3296TIP3   OH231446   5.404   3.267   0.476 -0.3604 -0.6612  0.4133
 3296TIP3    H131447   5.338   3.263   0.407 -0.1757  0.2380  0.1719
 3296TIP3    H231448   5.370   3.332   0.537  1.0346  1.0479 -0.5354
 3297TIP3   OH231449   4.710   5.781   1.431  0.6337  0.2148  0.4849
 3297TIP3    H131450   4.616   5.770   1.418  0.6068  0.1915  0.6982
 3297TIP3    H231451   4.740   5.697   1.464  0.6677  0.3350  0.7630
 3298TIP3   OH231452   6.745   2.112   0.289  0.3519 -0.4353  0.3499
 3298TIP3    H131453   6.832   2.075   0.274  1.0249  1.0134  0.5074
 3298TIP3    H231454   6.693   2.084   0.213  1.2998 -0.3320 -0.3526
 3299TIP3   OH231455   2.250   2.596   6.916  0.2437 -0.4328  0.8544
 3299TIP3    H131456   2.302   2.579   6.837  1.5700  0.1060  1.5771
 3299TIP3    H231457   2.295   2.545   6.984 -1.1415 -1.2457  1.1963
 3300TIP3   OH231458   2.296   2.409   2.161 -0.0844 -0.1575  0.2751
 3300TIP3    H131459   2.384   2.385   2.191 -0.3705 -3.5446 -1.1394
 3300TIP3    H231460   2.305   2.421   2.067 -1.3140 -1.8931 -0.1054
 3301TIP3   OH231461   0.889   0.039   2.540 -0.3561 -0.8768  0.3573
 3301TIP3    H131462   0.933   0.062   2.458 -1.5670 -0.8850 -0.3083
 3301TIP3    H231463   0.870   0.124   2.581  1.3707 -0.8891  1.2698
 3302TIP3   OH231464   4.534   5.245   1.309  0.0727 -0.1888 -0.3451
 3302TIP3    H131465   4.447   5.250   1.271 -0.1991 -0.9260  0.1799
 3302TIP3    H231466   4.592   5.275   1.238 -0.7036  1.7302 -0.2283
 3303TIP3   OH231467   6.462   2.881   0.900  0.6807  0.1300  0.3371
 3303TIP3    H131468   6.480   2.938   0.825 -3.8020  0.7292 -0.5279
 3303TIP3    H231469   6.496   2.929   0.975  2.5571  0.9498 -0.9596
 3304TIP3   OH231470   3.345   4.907   1.660 -0.0648  0.6337  0.2099
 3304TIP3    H131471   3.263   4.956   1.668 -0.5368 -0.1326  0.1422
 3304TIP3    H231472   3.365   4.879   1.750 -0.9790 -0.9167 -0.0318
 3305TIP3   OH231473   0.957   4.475   0.380  0.1674 -0.0668  0.0819
 3305TIP3    H131474   1.052   4.484   0.383  0.3247 -1.6024  0.6030
 3305TIP3    H231475   0.925   4.563   0.358  1.6615  0.6089  0.4828
 3306TIP3   OH231476   2.641   5.445   1.339 -0.2025 -0.4161 -0.1661
 3306TIP3    H131477   2.689   5.520   1.375  1.5475 -2.1146  1.2088
 3306TIP3    H231478   2.555   5.450   1.382  0.1072  0.4404  0.3964
 3307TIP3   OH231479   6.687   0.450   7.747 -0.3271  0.6679 -0.1107
 3307TIP3    H131480   6.758   0.399   7.787 -0.6758  0.6960  0.5511
 3307TIP3    H231481   6.665   0.401   7.668  0.1571  0.4413 -0.1143
 3308TIP3   OH231482   2.025   6.743   0.445 -0.0793  0.0416  0.1771
 3308TIP3    H131483   2.104   6.793   0.466  1.4381 -2.4316  0.7323
 3308TIP3    H231484   1.994   6.711   0.530 -0.9873 -0.0267 -0.1733
 3309TIP3   OH231485   3.978   3.648   7.739 -0.2185 -0.3066  0.1684
 3309TIP3    H131486   3.928   3.655   7.821  0.0881  3.7668  0.2375
 3309TIP3    H231487   4.042   3.579   7.756 -1.5226 -1.0759  2.5430
 3310TIP3   OH231488   4.850   2.957   2.750  0.3979 -0.0551 -0.3848
 3310TIP3    H131489   4.808   3.043   2.752  1.1863  0.3538 -0.8138
 3310TIP3    H231490   4.807   2.907   2.819 -1.6217 -0.0608 -1.5592
 3311TIP3   OH231491   3.810   6.087   0.953 -0.0283 -0.1671 -0.1697
 3311TIP3    H131492   3.772   6.152   1.012  1.1760  1.2746 -0.9046
 3311TIP3    H231493   3.880   6.047   1.003  0.1407  0.1167 -0.1785
 3312TIP3   OH231494   6.058   1.406   1.689  0.0924 -0.1524 -0.2124
 3312TIP3    H131495   6.139   1.451   1.663 -0.2163  1.2765  1.1653
 3312TIP3    H231496   6.059   1.410   1.784 -1.6125 -0.0807 -0.1809
 3313TIP3   OH231497   4.661   1.833   7.419  0.5751  0.2383 -0.5143
 3313TIP3    H131498   4.664   1.886   7.498 -0.9487 -0.3328 -0.0317
 3313TIP3    H231499   4.684   1.745   7.448  1.0301  0.2194 -0.9160
 3314TIP3   OH231500   2.175   2.799   8.196  0.1992  0.0180  0.1605
 3314TIP3    H131501   2.185   2.892   8.218 -1.7827  0.1027  0.8559
 3314TIP3    H231502   2.235   2.754   8.255  0.3516  0.7686  0.5883
 3315TIP3   OH231503   0.901   6.615   1.380  0.0445 -0.7272  0.0189
 3315TIP3    H131504   0.806   6.611   1.392 -0.1128 -0.4375 -1.0506
 3315TIP3    H231505   0.932   6.527   1.402 -0.0282 -0.0017  3.6723
 3316TIP3   OH231506   5.459   0.676   1.636  0.1341 -0.6629  0.7351
 3316TIP3    H131507   5.383   0.717   1.678 -0.4274 -0.6028 -0.2833
 3316TIP3    H231508   5.478   0.734   1.561  1.3485 -0.5418  1.1215
 3317TIP3   OH231509   1.233   2.777   8.242  0.7190  0.3701 -0.2079
 3317TIP3    H131510   1.186   2.807   8.164 -1.0507  0.6632  0.9016
 3317TIP3    H231511   1.298   2.846   8.259  0.3278  0.8846 -0.7642
 3318TIP3   OH231512   5.575   1.943   2.394  0.0574  0.3121  0.2314
 3318TIP3    H131513   5.606   1.859   2.430  0.6420 -0.0813 -1.1286
 3318TIP3    H231514   5.509   1.973   2.457 -2.6953 -2.8216 -0.8856
 3319TIP3   OH231515   1.777   2.288   0.270 -0.2412  0.4066 -0.1171
 3319TIP3    H131516   1.755   2.359   0.209  0.0005  0.0790 -0.5869
 3319TIP3    H231517   1.872   2.278   0.262 -0.3445 -0.3637 -0.4975
 3320TIP3   OH231518   5.363   0.959   1.949 -0.7036 -0.6046  0.0200
 3320TIP3    H131519   5.308   0.907   1.890 -0.1005 -2.4950  1.0572
 3320TIP3    H231520   5.424   1.004   1.890 -0.3285 -2.1754 -0.8546
 3321TIP3   OH231521   0.214   0.149   8.385  0.1012 -0.1943  0.4383
 3321TIP3    H131522   0.256   0.151   8.471  1.1454  0.7209 -0.0674
 3321TIP3    H231523   0.191   0.057   8.372  1.6196 -0.6748  0.9057
 3322TIP3   OH231524   3.957   1.231   1.497  0.6616 -0.2482  0.3643
 3322TIP3    H131525   3.875   1.218   1.544  0.9380  2.8464  1.9453
 3322TIP3    H231526   3.943   1.311   1.447  2.5354  0.0535  0.2489
 3323TIP3   OH231527   1.471   2.831   2.567  0.3971 -0.7172  0.3795
 3323TIP3    H131528   1.388   2.863   2.530  0.3196 -0.2193  0.9667
 3323TIP3    H231529   1.507   2.907   2.613  1.3559 -0.8352 -0.1632
 3324TIP3   OH231530   0.694   5.801   8.144 -0.2193 -0.1003  0.2929
 3324TIP3    H131531   0.637   5.861   8.192  0.9549  0.5843  0.8655
 3324TIP3    H231532   0.735   5.747   8.212 -0.0760 -0.4992 -0.1018
 3325TIP3   OH231533   1.223   6.829   2.221 -0.8336  0.0107 -0.1696
 3325TIP3    H131534   1.215   6.887   2.145 -2.0846  0.0698 -0.0269
 3325TIP3    H231535   1.265   6.750   2.188  2.4375  1.5316 -0.0514
 3326TIP3   OH231536   2.249   2.940   6.893  0.3938 -0.0503 -0.0430
 3326TIP3    H131537   2.317   2.942   6.825  1.2143  1.3607  0.7682
 3326TIP3    H231538   2.251   3.028   6.931 -1.7392 -0.0611  0.1735
 3327TIP3   OH231539   1.993   3.286   7.552 -0.0180  0.0534  0.2616
 3327TIP3    H131540   2.030   3.353   7.609  1.8431 -0.9057  0.2563
 3327TIP3    H231541   2.010   3.318   7.463 -0.2164  0.1385  0.2536
 3328TIP3   OH231542   4.800   1.172   7.734  0.4287  0.2517 -0.3839
 3328TIP3    H131543   4.856   1.097   7.711  1.0857  1.4524 -3.0102
 3328TIP3    H231544   4.847   1.248   7.701 -1.4582  1.5880 -0.1314
 3329TIP3   OH231545   5.284   6.649   1.548  0.3654  0.9889  0.2922
 3329TIP3    H131546   5.284   6.723   1.487 -0.4320  0.0446 -0.8980
 3329TIP3    H231547   5.360   6.597   1.522 -0.1076  0.4645 -0.0628
 3330TIP3   OH231548   5.761   0.046   6.918 -0.0456 -0.7497  0.1633
 3330TIP3    H131549   5.757  -0.047   6.939  1.0870 -0.4255  2.0720
 3330TIP3    H231550   5.831   0.053   6.853  0.1119 -1.1830  0.2851
 3331TIP3   OH231551   5.466   3.916   1.332  0.3323 -0.0921 -0.1938
 3331TIP3    H131552   5.434   3.988   1.385  0.0373  0.9725 -1.7514
 3331TIP3    H231553   5.543   3.951   1.287  0.6454 -0.9939 -0.3983
 3332TIP3   OH231554   1.112   2.090   7.908 -0.1059 -0.1625 -0.4014
 3332TIP3    H131555   1.113   2.059   7.817  1.8585 -0.9959 -0.1566
 3332TIP3    H231556   1.176   2.034   7.952  1.6211  2.4797  0.6968
 3333TIP3   OH231557   5.722   2.348   1.784 -0.8059  0.2058  0.3365
 3333TIP3    H131558   5.774   2.284   1.735 -1.8106 -0.5128  0.1642
 3333TIP3    H231559   5.715   2.310   1.872 -0.9049  0.3758  0.4021
 3334TIP3   OH231560   0.842   2.183   7.938  0.4173 -0.3005 -0.7302
 3334TIP3    H131561   0.867   2.242   8.009 -1.5855  1.4716 -1.3746
 3334TIP3    H231562   0.907   2.113   7.940  2.4979  1.5332  0.5782
 3335TIP3   OH231563   1.102   0.989   2.650  0.2129  0.3862 -0.7500
 3335TIP3    H131564   1.076   0.898   2.634 -0.3774  0.0717  1.6995
 3335TIP3    H231565   1.044   1.041   2.595 -1.5209 -0.6100  0.0778
 3336TIP3   OH231566   4.910   0.160   6.841 -0.1149  0.0736 -0.3590
 3336TIP3    H131567   4.881   0.119   6.759 -1.7026 -0.6028  0.4981
 3336TIP3    H231568   4.908   0.254   6.822  1.9450 -0.1120 -1.8270
 3337TIP3   OH231569   2.258   5.389   7.766  0.1024 -0.4646 -0.3757
 3337TIP3    H131570   2.187   5.325   7.765  0.4836 -0.8997 -1.5122
 3337TIP3    H231571   2.328   5.347   7.716  0.2914  0.9234 -1.3184
 3338TIP3   OH231572   2.559   6.485   1.575 -0.0673  0.3496 -0.0540
 3338TIP3    H131573   2.528   6.430   1.647 -3.0762 -1.5072 -2.5287
 3338TIP3    H231574   2.560   6.573   1.612  3.4045 -0.8526  3.5988
 3339TIP3   OH231575   1.321   3.032   1.457  0.3590  0.0611 -0.4037
 3339TIP3    H131576   1.329   2.985   1.374 -1.3923 -0.1713 -0.4767
 3339TIP3    H231577   1.404   3.078   1.467  0.8741 -0.4944 -1.9198
 3340TIP3   OH231578   6.078   5.848   1.785  0.3841 -0.3496  0.2307
 3340TIP3    H131579   5.995   5.840   1.832  0.9140  0.5522  1.3665
 3340TIP3    H231580   6.093   5.761   1.748 -1.7494 -0.1918 -1.2236
 3341TIP3   OH231581   5.599   6.910   1.196  0.4432  0.1984 -0.4288
 3341TIP3    H131582   5.544   6.856   1.140 -0.7480 -0.4833  1.3365
 3341TIP3    H231583   5.589   6.999   1.161 -0.0045 -0.2562 -1.4859
 3342TIP3   OH231584   1.262   6.291   8.266  0.1449  0.4161  0.5197
 3342TIP3    H131585   1.210   6.345   8.206 -2.4419 -2.9539 -0.5657
 3342TIP3    H231586   1.323   6.244   8.209 -0.9667 -1.3149  0.6787
 3343TIP3   OH231587   3.794   2.849   7.481 -0.0260  0.7100  0.4491
 3343TIP3    H131588   3.775   2.898   7.401  1.0625  1.3971  0.5900
 3343TIP3    H231589   3.711   2.805   7.503 -0.3903  0.6629 -0.9375
 3344TIP3   OH231590   0.774   5.740   2.373  1.0376 -0.4713 -0.2741
 3344TIP3    H131591   0.694   5.691   2.392  1.9735 -2.0121 -0.1216
 3344TIP3    H231592   0.746   5.812   2.318 -0.4520 -1.0122 -0.2588
 3345TIP3   OH231593   5.997   0.168   0.612  0.1446  0.7397 -0.2680
 3345TIP3    H131594   5.968   0.215   0.690 -0.1601  0.5370 -0.2576
 3345TIP3    H231595   6.076   0.214   0.584 -0.1100  1.2163 -0.2162
 3346TIP3   OH231596   4.776   5.636   2.310 -0.1040 -0.1234 -0.1238
 3346TIP3    H131597   4.732   5.625   2.395  1.8457 -1.2500  0.8294
 3346TIP3    H231598   4.869   5.645   2.333  0.8734 -3.2787 -2.1882
 3347TIP3   OH231599   4.025   5.551   1.943 -0.3060  0.1597  0.6260
 3347TIP3    H131600   3.937   5.521   1.966  0.0884 -0.5917  1.1882
 3347TIP3    H231601   4.012   5.600   1.862 -0.7971 -2.9623 -1.3624
 3348TIP3   OH231602   4.090   0.173   7.219  0.2144  0.5569  0.1336
 3348TIP3    H131603   4.171   0.155   7.172 -0.7906 -0.9275 -1.1389
 3348TIP3    H231604   4.092   0.267   7.235  1.9245  0.6402 -0.3265
 3349TIP3   OH231605   2.512   0.037   1.981 -0.2037  0.2480  0.0651
 3349TIP3    H131606   2.547  -0.040   2.025 -0.3917  0.1009 -0.0358
 3349TIP3    H231607   2.533   0.023   1.888  0.6733  0.8193  0.1696
 3350TIP3   OH231608   1.274   5.760   8.057 -0.7237  0.0632  0.3375
 3350TIP3    H131609   1.236   5.763   7.970  1.3468  0.8306 -0.6016
 3350TIP3    H231610   1.243   5.840   8.100  1.4609  1.8710 -1.2132
 3351TIP3   OH231611   0.782   5.290   1.056 -0.1318  0.0686  0.2623
 3351TIP3    H131612   0.800   5.330   1.141  0.6867  1.0714 -0.3598
 3351TIP3    H231613   0.761   5.364   0.998 -1.8149 -0.6842 -0.1545
 3352TIP3   OH231614   0.964   4.274   1.142 -0.7168  0.5073 -0.3283
 3352TIP3    H131615   1.018   4.201   1.170 -0.0138  0.4992 -1.6405
 3352TIP3    H231616   0.989   4.290   1.052 -1.5591  1.7447 -0.3768
 3353TIP3   OH231617   2.713   0.666   7.869 -0.2389 -0.3595  0.4132
 3353TIP3    H131618   2.632   0.705   7.901 -1.3508 -2.4117  0.2590
 3353TIP3    H231619   2.691   0.632   7.783  1.6172  1.5080 -0.9190
 3354TIP3   OH231620   2.872   2.493   2.157 -0.3030  0.1721 -0.0531
 3354TIP3    H131621   2.784   2.511   2.124 -0.0851  0.0683 -0.7065
 3354TIP3    H231622   2.892   2.568   2.213 -0.6381  0.4147 -0.2514
 3355TIP3   OH231623   0.447   2.756   7.073  0.0758 -0.2835  0.4028
 3355TIP3    H131624   0.382   2.824   7.088 -0.7844 -1.2177  1.0980
 3355TIP3    H231625   0.496   2.785   6.996 -1.5227  0.1720 -0.4852
 3356TIP3   OH231626   6.776   0.165   8.319  0.2546 -1.0160 -0.7587
 3356TIP3    H131627   6.783   0.107   8.395 -0.4492  0.7242  0.6954
 3356TIP3    H231628   6.694   0.213   8.332  1.7578  1.7696 -0.7859
 3357TIP3   OH231629   4.965   5.315   1.346 -0.1450  0.5883 -0.0948
 3357TIP3    H131630   4.975   5.291   1.438  0.8961 -0.4711 -0.4585
 3357TIP3    H231631   5.019   5.393   1.336  2.3534 -1.0415 -0.4331
 3358TIP3   OH231632   3.489   3.315   2.607 -0.0151  0.4956  0.0960
 3358TIP3    H131633   3.441   3.381   2.656  0.6249  0.1736  1.2131
 3358TIP3    H231634   3.472   3.233   2.654 -0.2621 -0.0214 -0.8687
 3359TIP3   OH231635   5.159   5.098   8.152 -0.3872 -0.1366  0.0025
 3359TIP3    H131636   5.129   5.071   8.065 -0.8103 -0.2437  0.1807
 3359TIP3    H231637   5.103   5.050   8.212 -0.9591  0.9215  0.3361
 3360TIP3   OH231638   5.861   0.258   8.356  0.1026  0.4722 -0.2243
 3360TIP3    H131639   5.864   0.323   8.426  0.9900  0.4840 -0.2614
 3360TIP3    H231640   5.882   0.175   8.399 -1.3111  0.1372 -0.1216
 3361TIP3   OH231641   3.746   6.003   2.112  0.5911  0.5249  0.5548
 3361TIP3    H131642   3.668   5.949   2.094  1.3499 -0.3193 -0.3112
 3361TIP3    H231643   3.809   5.942   2.151  2.0700  0.2950 -1.9580
 3362TIP3   OH231644   2.722   0.597   1.512 -0.3998  0.3829 -1.0747
 3362TIP3    H131645   2.768   0.517   1.539  0.8038  0.5880 -2.3849
 3362TIP3    H231646   2.755   0.665   1.572  1.4053  0.6098 -2.2364
 3363TIP3   OH231647   0.893   0.793   7.478 -0.6827  0.5991  0.1481
 3363TIP3    H131648   0.804   0.758   7.478 -1.3113  2.1431  0.3072
 3363TIP3    H231649   0.883   0.887   7.462  0.8488  0.9836  1.1798
 3364TIP3   OH231650   3.810   0.267   2.443  0.3489 -0.0188 -0.7502
 3364TIP3    H131651   3.768   0.353   2.450  0.1632 -0.1884  0.6730
 3364TIP3    H231652   3.806   0.246   2.350  0.8523  1.7248 -1.2079
 3365TIP3   OH231653   0.900   6.519   1.082  0.3465 -0.4816 -0.3914
 3365TIP3    H131654   0.920   6.512   1.176 -1.6238 -2.1691 -0.0317
 3365TIP3    H231655   0.837   6.590   1.076 -0.0304 -0.8119 -0.3450
 3366TIP3   OH231656   5.229   1.589   8.519  0.3534 -0.1683 -0.6732
 3366TIP3    H131657   5.314   1.561   8.555  1.2971  1.3888 -1.5713
 3366TIP3    H231658   5.165   1.564   8.586  1.5080 -1.4136  0.0116
 3367TIP3   OH231659   6.455   3.785   2.116 -0.1159 -0.3918 -0.2439
 3367TIP3    H131660   6.427   3.785   2.025  1.8999  1.9930 -0.9863
 3367TIP3    H231661   6.538   3.834   2.116 -1.6146  2.6951  3.2624
 3368TIP3   OH231662   2.902   6.240   2.604  0.1725  0.4528 -0.4435
 3368TIP3    H131663   2.960   6.248   2.529  1.9395 -1.1810  0.6537
 3368TIP3    H231664   2.842   6.168   2.582  1.6985 -1.0954  0.2563
 3369TIP3   OH231665   0.771   2.173   1.890  0.4088  0.1085  0.3955
 3369TIP3    H131666   0.713   2.248   1.883  1.6204  0.9409 -2.4900
 3369TIP3    H231667   0.733   2.118   1.958 -0.9658  2.9146  2.0330
 3370TIP3   OH231668   4.029   0.977   1.622  0.5128  0.3312 -0.1526
 3370TIP3    H131669   4.091   1.040   1.660  0.8195  0.5233 -0.9453
 3370TIP3    H231670   3.997   1.021   1.543  1.1633 -0.7303 -1.0369
 3371TIP3   OH231671   4.250   5.199   1.498 -0.8080  0.2897 -0.4228
 3371TIP3    H131672   4.290   5.113   1.483 -0.9998  0.2951 -0.9888
 3371TIP3    H231673   4.276   5.250   1.421 -1.4928  0.4472 -0.5496
 3372TIP3   OH231674   6.469   4.905   7.081  0.2238  0.1453  0.0884
 3372TIP3    H131675   6.380   4.895   7.115 -0.5213  0.1504 -1.7434
 3372TIP3    H231676   6.507   4.818   7.091  0.2233  0.2795  1.3995
 3373TIP3   OH231677   5.513   5.173   1.727 -0.2398  0.5774 -0.2313
 3373TIP3    H131678   5.521   5.256   1.774  1.9826  0.5581 -0.4623
 3373TIP3    H231679   5.496   5.199   1.637 -2.0572  0.6717  0.0973
 3374TIP3   OH231680   1.618   4.899   1.703  0.2221  0.3321 -0.3840
 3374TIP3    H131681   1.582   4.956   1.636  2.2291  1.7775 -0.3176
 3374TIP3    H231682   1.713   4.899   1.687  0.9364  1.4867  2.8957
 3375TIP3   OH231683   6.136   6.740   1.046 -0.5625  0.4432  0.5259
 3375TIP3    H131684   6.152   6.779   0.960 -1.1356 -0.8900 -0.2174
 3375TIP3    H231685   6.115   6.814   1.103  3.5345  1.8600  0.5225
 3376TIP3   OH231686   3.055   1.580   1.906  0.2852 -0.1916  0.7572
 3376TIP3    H131687   3.124   1.589   1.972  0.1736  0.6565  0.7658
 3376TIP3    H231688   3.019   1.668   1.896 -0.9624 -0.6520  0.9269
 3377TIP3   OH231689   5.975   5.442   2.338 -0.5047 -0.1552  0.2634
 3377TIP3    H131690   5.991   5.399   2.422  0.5043  1.6373  1.0552
 3377TIP3    H231691   5.883   5.468   2.342 -0.4065  0.1086  0.9224
 3378TIP3   OH231692   4.643   4.715   8.087 -0.5851  0.0485 -0.6730
 3378TIP3    H131693   4.561   4.750   8.121 -0.2814  1.2080 -1.0790
 3378TIP3    H231694   4.711   4.767   8.130  0.0995 -2.4158  1.4344
 3379TIP3   OH231695   4.907   4.447   8.216  0.3145  0.2899 -0.1000
 3379TIP3    H131696   4.884   4.433   8.124  1.6067 -0.9397 -0.2666
 3379TIP3    H231697   4.944   4.536   8.218  1.0859  0.0004 -0.9355
 3380TIP3   OH231698   2.381   2.863   7.414 -0.2843  0.2214 -0.5991
 3380TIP3    H131699   2.343   2.950   7.422 -0.1839  0.3261 -1.2376
 3380TIP3    H231700   2.339   2.812   7.483 -2.7683 -0.0858 -2.2375
 3381TIP3   OH231701   1.524   0.953   1.622 -0.3256  0.2245 -0.0043
 3381TIP3    H131702   1.532   1.017   1.551  1.1504  0.3365  0.2295
 3381TIP3    H231703   1.614   0.941   1.653 -0.6934 -1.3334  0.5236
 3382TIP3   OH231704   0.264   2.902   7.498  0.0782  0.0864  0.5504
 3382TIP3    H131705   0.296   2.948   7.421  0.3640  1.5218  1.4937
 3382TIP3    H231706   0.204   2.963   7.541 -0.6474 -0.9573  1.0962
 3383TIP3   OH231707   2.216   4.529   1.109 -0.3952 -0.2179 -0.3288
 3383TIP3    H131708   2.173   4.449   1.138 -0.4892  0.1538  0.5785
 3383TIP3    H231709   2.309   4.511   1.119 -0.4321  0.7314  2.6205
 3384TIP3   OH231710   0.443   2.350   8.440 -0.0881  0.3610 -0.2859
 3384TIP3    H131711   0.368   2.369   8.497 -0.4813  1.3778 -1.0999
 3384TIP3    H231712   0.461   2.433   8.396  1.0695 -0.0567 -0.6341
 3385TIP3   OH231713   2.219   5.418   2.830  0.4103  0.1363  0.0498
 3385TIP3    H131714   2.208   5.504   2.789  1.9873  0.3064 -0.0756
 3385TIP3    H231715   2.239   5.437   2.922  2.3783  0.0288 -0.3047
 3386TIP3   OH231716   6.272   0.344   7.975  0.0626 -0.0072  0.5254
 3386TIP3    H131717   6.234   0.268   7.930  0.7590  1.1797 -2.2854
 3386TIP3    H231718   6.196   0.398   7.998 -0.2778  0.3879 -1.3094
 3387TIP3   OH231719   0.641   3.805   2.469 -0.0116 -0.3285  0.5906
 3387TIP3    H131720   0.678   3.893   2.479  1.0460 -0.5689 -0.9966
 3387TIP3    H231721   0.559   3.809   2.519 -0.0871  1.6211  0.4150
 3388TIP3   OH231722   2.862   3.246   7.551 -0.0442 -0.2223 -0.3202
 3388TIP3    H131723   2.908   3.330   7.549  0.2850 -0.4138 -0.9701
 3388TIP3    H231724   2.899   3.197   7.478  1.0871 -1.6406  1.1377
 3389TIP3   OH231725   2.578   6.702   7.312 -0.5033 -0.1038  0.2121
 3389TIP3    H131726   2.497   6.699   7.261 -0.9295  0.1983  0.8540
 3389TIP3    H231727   2.634   6.635   7.272 -1.6887 -1.5005  0.7890
 3390TIP3   OH231728   5.228   5.426   1.790 -0.2388 -0.5882 -0.3386
 3390TIP3    H131729   5.279   5.370   1.849  0.2281 -1.3526 -1.4287
 3390TIP3    H231730   5.262   5.405   1.703  0.0449  1.5013 -0.7738
 3391TIP3   OH231731   5.367   5.668   7.637  0.1594 -0.0663  0.2717
 3391TIP3    H131732   5.296   5.731   7.625  0.2936  0.3780  1.5938
 3391TIP3    H231733   5.437   5.697   7.579  0.7326  1.8232  1.8155
 3392TIP3   OH231734   3.030   0.808   0.124  0.0165  0.4042  0.0419
 3392TIP3    H131735   3.017   0.853   0.207  2.8131  0.1176  0.7263
 3392TIP3    H231736   3.035   0.879   0.059  0.9106  0.8741  0.6065
 3393TIP3   OH231737   3.837   1.966   8.178 -0.0073  0.4460 -0.6093
 3393TIP3    H131738   3.828   1.956   8.083 -2.0634 -0.0886 -0.3970
 3393TIP3    H231739   3.803   2.053   8.196 -1.5877 -0.2355 -0.1624
 3394TIP3   OH231740   2.696   0.257   7.500 -0.0574  0.3090  1.0896
 3394TIP3    H131741   2.788   0.283   7.497 -0.7034  2.8075 -0.1554
 3394TIP3    H231742   2.663   0.277   7.413 -1.7859 -0.5836  1.4949
 3395TIP3   OH231743   6.046   2.461   8.400  0.5016  0.8665  0.5236
 3395TIP3    H131744   6.007   2.432   8.482  1.6714 -2.0667  0.1742
 3395TIP3    H231745   6.127   2.410   8.393  0.4650  1.0246 -2.4206
 3396TIP3   OH231746   5.054   0.002   8.371  0.0672 -0.5745  0.1280
 3396TIP3    H131747   5.134   0.010   8.423 -0.2836 -1.4334  0.8283
 3396TIP3    H231748   5.083   0.015   8.281  0.9951 -0.8413  0.3751
 3397TIP3   OH231749   6.779   1.670   6.375  0.0235 -0.4712 -0.2658
 3397TIP3    H131750   6.777   1.581   6.411  1.6250  0.4702  2.4104
 3397TIP3    H231751   6.871   1.695   6.380 -0.3065  1.1389 -1.5723
 3398TIP3   OH231752   6.360   5.110   8.124 -0.3394 -0.6733  0.0491
 3398TIP3    H131753   6.312   5.192   8.107  0.6003 -0.2215 -0.4831
 3398TIP3    H231754   6.324   5.049   8.060 -0.5964 -0.5008  0.0233
 3399TIP3   OH231755   0.636   3.043   8.124  0.2217  0.3417  0.2393
 3399TIP3    H131756   0.652   3.001   8.208 -0.3344 -0.3335  0.0147
 3399TIP3    H231757   0.583   3.120   8.145  0.5407  0.4692  0.5673
 3400TIP3   OH231758   4.271   3.069   8.276 -0.0287 -0.3560  0.0875
 3400TIP3    H131759   4.237   3.004   8.338 -0.8333  0.6636  0.7550
 3400TIP3    H231760   4.247   3.035   8.190  1.1273 -1.8135  0.3084
 3401TIP3   OH231761   3.833   6.760   1.282 -0.3639  0.2416  0.6153
 3401TIP3    H131762   3.738   6.764   1.270 -0.4099 -2.5559 -0.8737
 3401TIP3    H231763   3.844   6.709   1.362 -0.1226  0.1447  0.5188
 3402TIP3   OH231764   0.502   5.236   0.298  0.0569 -0.5285 -0.4701
 3402TIP3    H131765   0.448   5.315   0.301  0.0344 -0.5596  0.0659
 3402TIP3    H231766   0.523   5.225   0.206  0.2026  0.2059 -0.5322
 3403TIP3   OH231767   5.101   6.475   1.149  0.0688  0.2989  0.2473
 3403TIP3    H131768   5.082   6.549   1.206  1.8126  0.8794  0.1472
 3403TIP3    H231769   5.038   6.407   1.175 -0.8316  1.4180  1.0938
 3404TIP3   OH231770   5.913   3.106   0.372  0.4727 -0.5538 -0.4437
 3404TIP3    H131771   5.857   3.068   0.304 -0.9812  0.8444 -0.1111
 3404TIP3    H231772   5.993   3.132   0.327  0.3146 -1.4002 -1.2166
 3405TIP3   OH231773   2.244   3.110   7.452 -0.1316 -0.0527  0.3218
 3405TIP3    H131774   2.150   3.113   7.469 -0.5457 -1.8155 -1.2761
 3405TIP3    H231775   2.255   3.158   7.370  0.5695  1.1599  1.0990
 3406TIP3   OH231776   2.902   3.309   0.730 -0.2091 -0.3213  0.4016
 3406TIP3    H131777   2.926   3.398   0.757 -0.1324  0.0192 -0.7405
 3406TIP3    H231778   2.806   3.310   0.729 -0.2033  0.2181 -1.0595
 3407TIP3   OH231779   1.134   5.900   8.238 -0.4746 -0.2504 -0.0457
 3407TIP3    H131780   1.066   5.963   8.262 -2.4495 -2.2915 -0.0097
 3407TIP3    H231781   1.168   5.868   8.322 -0.8535 -0.6488 -0.0426
 3408TIP3   OH231782   0.930   1.289   6.889 -0.0737 -0.7807  0.4916
 3408TIP3    H131783   0.851   1.280   6.836 -0.8512 -2.6967  1.8091
 3408TIP3    H231784   1.003   1.275   6.828 -0.7832 -0.0784 -0.5438
 3409TIP3   OH231785   0.561   5.669   0.163 -0.0546  0.7346  0.2322
 3409TIP3    H131786   0.618   5.639   0.093  1.0350  1.6634  0.6774
 3409TIP3    H231787   0.502   5.732   0.122  0.1927  0.8351  0.0313
 3410TIP3   OH231788   0.820   5.631   2.038 -0.2922  0.4021  0.4137
 3410TIP3    H131789   0.742   5.595   2.082 -1.9125  1.3365 -1.5383
 3410TIP3    H231790   0.821   5.723   2.065  0.1459  0.3955  0.4199
 3411TIP3   OH231791   3.169   3.330   1.715  0.1926 -0.0529  0.1756
 3411TIP3    H131792   3.088   3.380   1.720  1.4730  2.1310  0.6519
 3411TIP3    H231793   3.193   3.333   1.622  0.0554 -0.1366  0.1372
 3412TIP3   OH231794   0.806   6.117   6.372  0.2372 -0.2653 -0.7531
 3412TIP3    H131795   0.843   6.099   6.286  0.7535 -1.0324 -0.3856
 3412TIP3    H231796   0.795   6.030   6.412  2.3746  0.1264  0.9264
 3413TIP3   OH231797   4.364   1.338   7.792  0.6939  0.1428 -0.9310
 3413TIP3    H131798   4.385   1.272   7.726  0.4106 -1.3026  0.3775
 3413TIP3    H231799   4.269   1.347   7.787  0.5157 -0.8777  0.0512
 3414TIP3   OH231800   4.060   5.265   7.849  0.2856  0.0394  0.0448
 3414TIP3    H131801   4.111   5.305   7.920 -1.6701 -1.8096  2.7434
 3414TIP3    H231802   4.098   5.177   7.839 -1.5162 -0.9553  1.3206
 3415TIP3   OH231803   0.561   3.140   7.541 -0.1433  0.0740 -0.6425
 3415TIP3    H131804   0.610   3.137   7.458 -0.9074 -0.3477 -1.0879
 3415TIP3    H231805   0.537   3.049   7.558 -0.0019  0.1616  0.0488
 3416TIP3   OH231806   6.398   0.421   0.782 -0.3530 -0.0839  0.5164
 3416TIP3    H131807   6.361   0.505   0.757  0.4778  0.1233 -0.0490
 3416TIP3    H231808   6.477   0.443   0.832  0.3645 -0.5149 -0.3944
 3417TIP3   OH231809   2.011   1.997   1.873  0.3246  0.2018  0.6412
 3417TIP3    H131810   2.005   2.018   1.967  1.6103  1.7533  0.4293
 3417TIP3    H231811   2.072   1.924   1.869  0.0623 -0.0451  1.0299
 3418TIP3   OH231812   5.428   5.721   1.144 -0.2138 -0.6853  0.1953
 3418TIP3    H131813   5.476   5.675   1.213 -0.5018 -1.0866  0.1330
 3418TIP3    H231814   5.484   5.713   1.066  0.7094  0.8682  0.6809
 3419TIP3   OH231815   4.071   4.201   2.322  0.5572 -0.0298  0.0333
 3419TIP3    H131816   4.120   4.280   2.340 -3.4674  2.7475  0.2050
 3419TIP3    H231817   4.061   4.158   2.408  1.5825 -0.0056  0.1726
 3420TIP3   OH231818   6.610   5.461   0.599  0.3225 -0.2768  0.1277
 3420TIP3    H131819   6.602   5.552   0.628 -0.4694  0.0424 -1.0344
 3420TIP3    H231820   6.702   5.452   0.572  0.1990  0.4323 -0.5590
 3421TIP3   OH231821   4.662   2.645   1.629 -0.2990 -0.5617  0.3613
 3421TIP3    H131822   4.604   2.569   1.623  0.0082 -0.8831  1.3210
 3421TIP3    H231823   4.615   2.707   1.685  0.4683 -1.0258  1.5624
 3422TIP3   OH231824   2.420   4.608   7.494 -0.0030  0.0219 -0.4840
 3422TIP3    H131825   2.507   4.602   7.455  0.4753  1.3884  0.3058
 3422TIP3    H231826   2.420   4.692   7.540 -0.9674 -0.9463  1.3830
 3423TIP3   OH231827   2.937   6.654   1.187  0.0704 -0.3357 -1.0229
 3423TIP3    H131828   2.960   6.667   1.095  0.4218 -1.3072 -1.0841
 3423TIP3    H231829   3.020   6.635   1.230  0.0173  0.8935 -0.3470
 3424TIP3   OH231830   3.153   6.623   8.542  0.5494 -0.1388  0.2961
 3424TIP3    H131831   3.186   6.597   8.456 -0.3315 -1.9389  0.4567
 3424TIP3    H231832   3.223   6.675   8.580  1.4330 -0.3112 -1.0457
 3425TIP3   OH231833   3.666   5.826   2.788 -0.0447 -0.1422  0.3408
 3425TIP3    H131834   3.643   5.905   2.838 -0.2963 -1.0361  1.7022
 3425TIP3    H231835   3.582   5.789   2.762  0.0989  1.0368 -2.0043
 3426TIP3   OH231836   2.423   4.333   0.228  0.1484  0.2074 -0.4087
 3426TIP3    H131837   2.515   4.309   0.229 -0.5087 -2.7005  1.5343
 3426TIP3    H231838   2.399   4.340   0.320 -0.9465  4.0951 -0.8202
 3427TIP3   OH231839   0.466   2.297   7.615 -0.2821 -0.1896  0.1955
 3427TIP3    H131840   0.412   2.360   7.566 -1.5790 -1.3513  0.0641
 3427TIP3    H231841   0.525   2.260   7.549  1.2911  1.6179  0.4773
 3428TIP3   OH231842   5.428   4.223   7.985  0.4281  0.5135  0.6134
 3428TIP3    H131843   5.393   4.157   8.045 -1.0818 -1.2199 -1.9852
 3428TIP3    H231844   5.514   4.190   7.961  0.0346 -0.0759 -0.0090
 3429TIP3   OH231845   6.408   0.121   1.507 -0.6504  0.0755 -0.4006
 3429TIP3    H131846   6.341   0.054   1.493 -1.0422  0.4800 -0.4970
 3429TIP3    H231847   6.359   0.198   1.538 -0.0460 -0.1452  1.1773
 3430TIP3   OH231848   0.925   5.873   3.037  0.5928 -0.2990 -0.7142
 3430TIP3    H131849   0.960   5.915   3.116 -2.1379 -0.9436  0.9523
 3430TIP3    H231850   0.969   5.788   3.035 -0.8318 -1.1528  1.4063
 3431TIP3   OH231851   1.062   5.623   0.880  0.2278  0.1423 -0.6324
 3431TIP3    H131852   1.050   5.578   0.797  0.1015 -0.4173 -0.3118
 3431TIP3    H231853   1.072   5.553   0.945 -2.1093  0.5272  0.2112
 3432TIP3   OH231854   4.534   3.242   7.564  0.0841  0.2030 -0.0331
 3432TIP3    H131855   4.504   3.164   7.518 -0.7017  0.9430 -0.8430
 3432TIP3    H231856   4.582   3.292   7.498 -1.8329  1.7134 -0.3916
 3433TIP3   OH231857   5.349   2.909   8.011  1.1351  0.6606 -0.2537
 3433TIP3    H131858   5.386   2.843   7.952 -0.2555 -0.5417  0.1616
 3433TIP3    H231859   5.278   2.948   7.961 -0.5227 -0.8666  0.8045
 3434TIP3   OH231860   6.870   6.793   8.248 -0.0846 -0.4680  0.1036
 3434TIP3    H131861   6.859   6.882   8.280 -0.7002 -0.3916 -0.3029
 3434TIP3    H231862   6.825   6.791   8.164 -0.9025 -1.4103  0.5395
 3435TIP3   OH231863   2.116   0.666   0.472 -0.7835 -0.0419  0.4885
 3435TIP3    H131864   2.172   0.628   0.540  0.6356 -0.5715 -0.9236
 3435TIP3    H231865   2.052   0.598   0.451 -0.8445 -0.0993  0.8570
 3436TIP3   OH231866   1.161   6.864   8.086 -0.1068 -0.1997 -0.3016
 3436TIP3    H131867   1.235   6.852   8.146  1.9596  0.2378 -2.5576
 3436TIP3    H231868   1.111   6.936   8.124  0.6389 -0.4667  1.2897
 3437TIP3   OH231869   6.351   5.621   0.153  0.1342  0.0165  0.0238
 3437TIP3    H131870   6.408   5.630   0.076  0.6128  0.9762  0.4658
 3437TIP3    H231871   6.392   5.552   0.205 -1.5215 -2.3870 -1.6813
 3438TIP3   OH231872   3.910   3.994   2.280  0.0425 -0.4135  0.0054
 3438TIP3    H131873   3.987   3.941   2.303 -0.1923 -0.0768  1.6686
 3438TIP3    H231874   3.946   4.081   2.263  0.3696 -0.9329 -2.2668
 3439TIP3   OH231875   0.034   4.384   2.586 -0.0287  0.1890 -0.0480
 3439TIP3    H131876   0.098   4.319   2.557 -1.4354 -1.1814 -0.2534
 3439TIP3    H231877  -0.002   4.347   2.667 -1.0295  0.5708 -0.2995
 3440TIP3   OH231878   4.590   1.981   8.437 -1.0415  0.6206  0.9312
 3440TIP3    H131879   4.569   2.031   8.516  0.6173 -0.7610  2.3327
 3440TIP3    H231880   4.666   2.025   8.400 -1.4082  0.8712  0.4678
 3441TIP3   OH231881   5.319   1.730   2.143 -0.3038 -0.3427  0.5470
 3441TIP3    H131882   5.308   1.804   2.083 -1.4921 -0.1317  0.9927
 3441TIP3    H231883   5.297   1.766   2.229  0.8942 -0.7657  1.0473
 3442TIP3   OH231884   6.537   2.291   7.920 -0.1400  0.3512 -0.0975
 3442TIP3    H131885   6.464   2.232   7.905 -0.2136  0.5556 -0.5559
 3442TIP3    H231886   6.614   2.241   7.892  0.1543 -0.5914  2.1379
 3443TIP3   OH231887   5.927   1.099   1.972  0.9545  0.1075 -0.0380
 3443TIP3    H131888   6.021   1.098   1.954  1.1651 -1.3009  0.9672
 3443TIP3    H231889   5.921   1.116   2.066  0.3167 -1.7638  0.2990
 3444TIP3   OH231890   6.412   0.868   1.751  0.2740  0.5958 -0.0382
 3444TIP3    H131891   6.380   0.795   1.803  0.0184  0.7089 -0.0322
 3444TIP3    H231892   6.487   0.902   1.800  0.0654  0.6694  0.2326
 3445TIP3   OH231893   0.731   2.060   7.678 -0.5912 -0.3486 -0.2217
 3445TIP3    H131894   0.729   2.109   7.761 -1.2585  0.5194 -0.7324
 3445TIP3    H231895   0.654   2.003   7.684 -0.2484 -0.7850  0.0469
 3446TIP3   OH231896   4.776   0.872   8.056  0.0226  0.2649 -0.0136
 3446TIP3    H131897   4.862   0.872   8.014  0.1424  0.3817  0.2297
 3446TIP3    H231898   4.740   0.958   8.037  1.4717  1.6500  2.9339
 3447TIP3   OH231899   2.805   1.642   2.078  0.3296 -0.1936  0.1034
 3447TIP3    H131900   2.727   1.648   2.133  0.1295  1.0896 -0.2777
 3447TIP3    H231901   2.836   1.552   2.089 -1.1375 -0.6951  0.3405
 3448TIP3   OH231902   0.509   3.320   8.165 -0.2188 -0.2780 -0.6881
 3448TIP3    H131903   0.549   3.385   8.222  0.4406 -1.9594  0.8849
 3448TIP3    H231904   0.513   3.358   8.077  0.4592  1.6040  0.1294
 3449TIP3   OH231905   1.587   1.082   2.089 -0.6520  0.0608  0.1294
 3449TIP3    H131906   1.504   1.129   2.085 -0.8445 -0.2943 -0.2361
 3449TIP3    H231907   1.595   1.042   2.002 -0.7789 -1.0454  0.6017
 3450TIP3   OH231908   1.926   6.089   0.561  0.2094 -0.7335 -0.3307
 3450TIP3    H131909   1.900   6.107   0.651  2.2724  0.4529  0.0906
 3450TIP3    H231910   2.008   6.039   0.570  0.6773 -0.2072 -1.5328
 3451TIP3   OH231911   5.403   1.012   0.931 -0.4334  0.0142  0.8518
 3451TIP3    H131912   5.470   0.985   0.995  0.3614 -0.6436 -0.2190
 3451TIP3    H231913   5.350   0.933   0.918 -0.3003  0.0058  0.3536
 3452TIP3   OH231914   5.072   6.357   0.490 -0.0330 -0.3017  0.4190
 3452TIP3    H131915   5.036   6.445   0.498  0.0638 -0.1983 -0.1903
 3452TIP3    H231916   5.073   6.322   0.579  0.5813  0.5738  0.7666
 3453TIP3   OH231917   2.235   3.127   0.008 -0.1515 -0.3263 -0.2905
 3453TIP3    H131918   2.166   3.147   0.071 -0.4326  0.7761 -0.9069
 3453TIP3    H231919   2.296   3.071   0.055 -1.0405 -0.6307  0.5292
 3454TIP3   OH231920   6.644   5.967   1.928  0.2549 -0.6194 -0.7817
 3454TIP3    H131921   6.680   5.887   1.890  0.8469  0.2148 -2.0491
 3454TIP3    H231922   6.720   6.013   1.963 -0.0775 -0.5956 -0.0850
 3455TIP3   OH231923   3.308   5.407   0.605 -0.2576  0.4595 -0.3220
 3455TIP3    H131924   3.393   5.386   0.568  0.3479  0.9900  0.7129
 3455TIP3    H231925   3.312   5.374   0.695 -2.3502 -2.4516 -1.1832
 3456TIP3   OH231926   6.433   4.523   8.235 -0.5412  0.6482 -0.4642
 3456TIP3    H131927   6.490   4.477   8.296 -0.5991  1.3981  0.1687
 3456TIP3    H231928   6.482   4.601   8.209 -0.4927  0.3086 -1.4279
 3457TIP3   OH231929   0.090   2.059   1.963  0.2398 -0.3054 -0.1568
 3457TIP3    H131930   0.120   2.132   1.909  2.6697 -0.8507  0.3361
 3457TIP3    H231931   0.169   2.006   1.978 -1.2633 -2.5610  0.2363
 3458TIP3   OH231932   0.625   0.020   0.741 -0.4859 -0.5892  0.5286
 3458TIP3    H131933   0.657  -0.066   0.716  1.4137  0.6903 -1.8502
 3458TIP3    H231934   0.684   0.082   0.698 -1.3151  1.9446  2.7246
 3459TIP3   OH231935   4.945   1.155   1.151 -0.5391 -0.1071 -0.2329
 3459TIP3    H131936   4.891   1.096   1.204 -0.8713  0.9584  0.6353
 3459TIP3    H231937   5.028   1.109   1.141 -1.0632 -1.0758 -0.2523
 3460TIP3   OH231938   5.330   1.850   6.933  0.4838  0.4964 -0.0615
 3460TIP3    H131939   5.290   1.927   6.893  1.9788  0.7415 -1.1851
 3460TIP3    H231940   5.292   1.776   6.885  0.5907  0.6648 -0.4149
 3461TIP3   OH231941   6.869   2.028   2.501  0.1389 -0.0478  0.0085
 3461TIP3    H131942   6.878   1.940   2.466  0.2755 -0.5423  1.2365
 3461TIP3    H231943   6.940   2.078   2.460  0.4552 -0.6633 -0.2080
 3462TIP3   OH231944   5.350   6.181   8.018  0.2537 -0.2547 -0.3077
 3462TIP3    H131945   5.367   6.274   8.008  0.1076 -0.0622  1.0525
 3462TIP3    H231946   5.273   6.165   7.963 -0.3124  0.6382  0.1990
 3463TIP3   OH231947   0.360   0.783   7.593 -0.3721  0.5069 -0.3327
 3463TIP3    H131948   0.425   0.785   7.663 -1.0097 -0.0173  0.2942
 3463TIP3    H231949   0.287   0.835   7.626 -1.5056 -1.3845  0.2763
 3464TIP3   OH231950   5.079   1.024   2.458 -0.6113  0.5405  0.0405
 3464TIP3    H131951   5.103   1.043   2.549  1.1062  1.2835 -0.5221
 3464TIP3    H231952   5.048   1.108   2.423 -1.1212  0.2944 -0.1112
 3465TIP3   OH231953   1.858   5.179   0.501  0.0858 -0.4477  0.1026
 3465TIP3    H131954   1.822   5.104   0.455  0.9522 -2.0423  1.8917
 3465TIP3    H231955   1.912   5.142   0.570  1.1404  1.8392  0.6207
 3466TIP3   OH231956   5.137   2.028   1.427  0.1265  0.0654  0.4289
 3466TIP3    H131957   5.142   1.939   1.392  2.0865  0.3843 -0.2044
 3466TIP3    H231958   5.050   2.058   1.402 -0.6843 -1.7462  0.8846
 3467TIP3   OH231959   0.934   2.845   7.784  0.5495 -0.4337 -0.0650
 3467TIP3    H131960   0.875   2.913   7.817  0.6450 -0.9012  1.1264
 3467TIP3    H231961   0.888   2.809   7.708 -0.2744 -0.1646  0.2839
 3468TIP3   OH231962   5.688   0.667   7.943 -0.3865  0.3787  0.1285
 3468TIP3    H131963   5.638   0.739   7.981 -0.4894  1.4231 -1.8596
 3468TIP3    H231964   5.774   0.674   7.985 -0.9849  0.3817  1.4206
 3469TIP3   OH231965   2.793   0.377   1.675 -0.5715 -0.3962  0.2294
 3469TIP3    H131966   2.801   0.362   1.769 -1.1735 -1.6193  0.0934
 3469TIP3    H231967   2.795   0.290   1.636  0.3920  0.1219 -0.9653
 3470TIP3   OH231968   6.529   0.976   0.894  0.5681  0.2415 -0.4764
 3470TIP3    H131969   6.498   0.970   0.984  2.6421 -1.0634  0.2344
 3470TIP3    H231970   6.451   0.961   0.840 -0.4078 -0.7184  1.1386
 3471TIP3   OH231971   6.818   3.449   7.189 -0.5543  0.0635  0.4006
 3471TIP3    H131972   6.887   3.423   7.251 -0.3202  1.4844  0.7817
 3471TIP3    H231973   6.833   3.393   7.112  0.5780 -0.1655  0.7587
 3472TIP3   OH231974   6.594   0.829   0.301  0.4221 -0.3745  0.4457
 3472TIP3    H131975   6.625   0.885   0.231  1.1578 -1.5524 -0.2016
 3472TIP3    H231976   6.639   0.861   0.380  0.3156  0.3502  0.2156
 3473TIP3   OH231977   5.706   2.970   1.097  0.1807  0.1134  0.5562
 3473TIP3    H131978   5.634   2.909   1.081  0.9887 -0.3386 -1.8227
 3473TIP3    H231979   5.672   3.055   1.069 -0.5478  0.6183  2.7693
 3474TIP3   OH231980   0.047   3.352   1.268  0.1080  0.1801  0.2226
 3474TIP3    H131981   0.140   3.332   1.262  0.2661  1.2528 -3.8230
 3474TIP3    H231982   0.005   3.266   1.275  1.2743 -0.2730  4.0188
 3475TIP3   OH231983   4.670   2.319   0.454  0.1097 -0.1270 -0.1608
 3475TIP3    H131984   4.682   2.227   0.434  1.0170 -0.4076  1.4606
 3475TIP3    H231985   4.617   2.353   0.382 -1.4452 -2.2034 -0.0735
 3476TIP3   OH231986   3.747   1.270   0.382  0.2127  0.1526  0.1569
 3476TIP3    H131987   3.652   1.267   0.389  0.3063 -3.9898  2.5454
 3476TIP3    H231988   3.777   1.301   0.468  1.0383  0.0109 -0.0649
 3477TIP3   OH231989   0.471   4.415   2.830  0.0982 -0.1409  0.0103
 3477TIP3    H131990   0.507   4.453   2.910  0.9507 -0.1741 -0.3542
 3477TIP3    H231991   0.387   4.459   2.818  0.4160  0.5782  0.3811
 3478TIP3   OH231992   0.916   5.233   7.567 -0.6288 -0.1028  0.2961
 3478TIP3    H131993   0.922   5.180   7.647 -0.7615  0.5151  0.7249
 3478TIP3    H231994   0.828   5.215   7.534 -0.7284 -0.0387  0.5214
 3479TIP3   OH231995   0.555   5.338   7.709 -0.0688 -0.2081 -0.5323
 3479TIP3    H131996   0.568   5.302   7.621 -1.5062  0.8226 -1.2012
 3479TIP3    H231997   0.557   5.433   7.697  0.0913 -0.0477  0.6181
 3480TIP3   OH231998   1.779   2.172   0.524  0.1908 -0.2009  0.0093
 3480TIP3    H131999   1.765   2.193   0.431  1.6328 -0.9979 -0.4281
 3480TIP3    H232000   1.704   2.117   0.547  0.1771 -0.5865 -0.8925
 3481TIP3   OH232001   6.516   5.316   2.475  0.4328  0.2116  0.3127
 3481TIP3    H132002   6.523   5.354   2.388 -1.3041 -0.0347  0.0416
 3481TIP3    H232003   6.521   5.221   2.461  1.7077  0.1947  0.6790
 3482TIP3   OH232004   5.026   6.875   6.598 -0.0302 -0.1005  0.3654
 3482TIP3    H132005   4.949   6.932   6.594 -0.5546 -0.6824  1.6298
 3482TIP3    H232006   5.100   6.934   6.583 -0.6085  0.8043  0.9650
 3483TIP3   OH232007   6.351   1.666   1.367  0.2221 -0.1700 -0.6485
 3483TIP3    H132008   6.323   1.757   1.370  1.1229  0.1202 -0.5188
 3483TIP3    H232009   6.323   1.628   1.450  1.2357  0.4322 -0.0084
 3484TIP3   OH232010   6.051   3.664   7.547 -0.6006 -0.1359  0.5794
 3484TIP3    H132011   6.055   3.727   7.476  1.7384 -0.8200 -0.0068
 3484TIP3    H232012   6.097   3.586   7.513 -0.8689 -1.0833  2.2507
 3485TIP3   OH232013   3.999   3.122   1.190  0.0781  0.4742 -0.0464
 3485TIP3    H132014   3.989   3.073   1.109 -0.3303  2.3110 -1.1493
 3485TIP3    H232015   4.092   3.113   1.212  0.1331 -0.2687 -0.5529
 3486TIP3   OH232016   0.925   4.161   0.719 -0.7330 -0.3891  0.3584
 3486TIP3    H132017   0.997   4.182   0.777 -0.8361 -0.5583  0.5506
 3486TIP3    H232018   0.962   4.167   0.631 -0.7521  0.5230  0.4085
 3487TIP3   OH232019   5.536   3.206   2.728 -0.4109  0.3670  0.1035
 3487TIP3    H132020   5.444   3.225   2.709 -0.1393  1.9028  0.1427
 3487TIP3    H232021   5.564   3.146   2.659 -1.2074  0.6286 -0.4549
 3488TIP3   OH232022   2.546   5.361   2.294 -0.2804 -0.5370  0.3210
 3488TIP3    H132023   2.534   5.407   2.377  2.1415  0.9452 -0.0398
 3488TIP3    H232024   2.602   5.286   2.317  1.4686  0.5883 -0.1031
 3489TIP3   OH232025   0.380   1.590   8.519 -0.5062  0.2927 -0.2221
 3489TIP3    H132026   0.340   1.506   8.542 -0.4978  0.3738  0.0892
 3489TIP3    H232027   0.365   1.646   8.595 -0.8393  0.6913 -0.5788
 3490TIP3   OH232028   1.848   4.815   0.591  0.2164  0.2503 -0.6290
 3490TIP3    H132029   1.944   4.809   0.589  0.1552 -1.9165  0.2529
 3490TIP3    H232030   1.830   4.863   0.672  0.5295  0.4642 -0.6795
 3491TIP3   OH232031   5.687   0.427   8.506 -0.1637 -0.3440 -0.3241
 3491TIP3    H132032   5.594   0.416   8.487  0.0400 -1.4591 -0.7563
 3491TIP3    H232033   5.689   0.458   8.597 -0.9557 -0.3559 -0.2955
 3492TIP3   OH232034   2.685   6.664   2.694  0.0338  0.4847 -0.0493
 3492TIP3    H132035   2.725   6.588   2.736 -1.9814 -0.7005 -0.1723
 3492TIP3    H232036   2.591   6.655   2.711 -0.4591  1.9390 -1.6813
 3493TIP3   OH232037   3.198   0.844   1.674  0.0660  0.2315  0.4344
 3493TIP3    H132038   3.178   0.751   1.687 -0.8128  0.2734 -0.4801
 3493TIP3    H232039   3.116   0.889   1.694  0.8021  0.9400  2.0245
 3494TIP3   OH232040   1.045   1.221   1.477  0.3042 -0.6551  0.1460
 3494TIP3    H132041   1.024   1.208   1.385  2.0877  0.3618 -0.4647
 3494TIP3    H232042   0.960   1.233   1.520 -0.5538 -1.1081 -1.3556
 3495TIP3   OH232043   0.133   1.404   8.321 -0.4495 -0.2451  0.4851
 3495TIP3    H132044   0.157   1.352   8.398 -0.8290 -2.0452 -0.5555
 3495TIP3    H232045   0.212   1.403   8.266 -0.1761  1.0411  0.8082
 3496TIP3   OH232046   2.665   0.553   8.404  0.1128  0.2281  0.6300
 3496TIP3    H132047   2.575   0.581   8.421  0.1922  0.8650  0.0446
 3496TIP3    H232048   2.710   0.633   8.377  0.5544 -0.3034 -0.2545
 3497TIP3   OH232049   3.595   5.512   6.895 -0.1600 -0.0577 -0.2465
 3497TIP3    H132050   3.529   5.452   6.859 -1.1044 -0.6817  2.2589
 3497TIP3    H232051   3.576   5.514   6.989  2.7680  0.5988  0.4296
 3498TIP3   OH232052   2.287   0.166   6.737 -0.0070  0.0255 -0.2212
 3498TIP3    H132053   2.294   0.071   6.747 -1.6063 -0.0927  0.1273
 3498TIP3    H232054   2.193   0.182   6.727  0.0297  1.7420  1.5135
 3499TIP3   OH232055   3.278   4.755   7.593  0.3990 -0.0432 -0.6065
 3499TIP3    H132056   3.186   4.761   7.616  0.5742  0.5966 -0.0335
 3499TIP3    H232057   3.310   4.677   7.640  0.3668  0.2915 -0.0219
 3500TIP3   OH232058   3.503   4.874   0.846 -0.2817  0.1601 -0.2253
 3500TIP3    H132059   3.586   4.897   0.888  1.0398 -2.1726 -1.3359
 3500TIP3    H232060   3.460   4.815   0.907  1.0504 -2.2166 -1.4579
 3501TIP3   OH232061   1.449   2.599   8.192 -0.9033  0.2938  0.0706
 3501TIP3    H132062   1.384   2.664   8.217  0.8913  2.8603 -1.4756
 3501TIP3    H232063   1.402   2.536   8.138 -2.7399  0.0731  1.8116
 3502TIP3   OH232064   0.822   0.274   1.492  0.3564 -0.1260  0.4618
 3502TIP3    H132065   0.770   0.286   1.572  0.4512 -0.3314  0.5576
 3502TIP3    H232066   0.788   0.194   1.453  0.2556  0.0186  0.2511
 3503TIP3   OH232067   2.486   5.221   0.207 -0.3181  0.4172  0.2699
 3503TIP3    H132068   2.430   5.240   0.282  0.5429 -0.9053  1.2997
 3503TIP3    H232069   2.550   5.158   0.240  1.3665  1.3431 -1.0362
 3504TIP3   OH232070   5.415   4.192   0.650 -0.1128 -0.4465 -0.0123
 3504TIP3    H132071   5.346   4.200   0.716 -0.9582  0.8443 -1.0040
 3504TIP3    H232072   5.483   4.140   0.693 -0.6655  0.2773  1.8472
 3505TIP3   OH232073   1.527   5.874   2.129 -0.3817 -0.1857 -0.5648
 3505TIP3    H132074   1.542   5.898   2.221  1.2788 -0.3190 -0.7873
 3505TIP3    H232075   1.447   5.821   2.132 -2.2849  2.5358  0.3516
 3506TIP3   OH232076   4.817   0.310   1.665 -0.3982 -0.1747  0.2037
 3506TIP3    H132077   4.853   0.249   1.729 -0.9673  0.2327  0.9383
 3506TIP3    H232078   4.722   0.303   1.676 -0.4801  1.1109  0.6004
 3507TIP3   OH232079   3.363   2.628   8.548  0.0393  0.0717 -0.2124
 3507TIP3    H132080   3.346   2.682   8.626  0.6954  0.7907 -0.5615
 3507TIP3    H232081   3.458   2.631   8.537 -0.0004 -0.4556 -0.7441
 3508TIP3   OH232082   0.246   1.954   0.350 -0.2624  0.2299 -0.4751
 3508TIP3    H132083   0.276   1.913   0.431 -0.2965  0.1156 -0.5192
 3508TIP3    H232084   0.307   2.027   0.336 -1.3011  1.3352  0.5656
 3509TIP3   OH232085   1.451   4.133   7.882 -0.7405 -0.2267  0.5017
 3509TIP3    H132086   1.458   4.162   7.973  0.5580 -0.6452  0.5443
 3509TIP3    H232087   1.515   4.187   7.834  0.7324 -2.0223  0.3549
 3510TIP3   OH232088   1.268   2.797   0.229  0.2514  0.4047  0.6161
 3510TIP3    H132089   1.194   2.814   0.171  0.8889  1.1678  0.0103
 3510TIP3    H232090   1.245   2.840   0.311  0.3867  1.3894  0.1531
 3511TIP3   OH232091   0.975   6.576   0.282  0.1287  0.3013  0.1681
 3511TIP3    H132092   0.902   6.515   0.272  0.9216 -0.8561  1.1485
 3511TIP3    H232093   1.043   6.526   0.328  1.2355  1.5906  0.0250
 3512TIP3   OH232094   1.890   1.366   7.585 -0.0796  0.5689  0.4026
 3512TIP3    H132095   1.942   1.294   7.548 -0.5108  0.1993  0.5021
 3512TIP3    H232096   1.927   1.445   7.546 -0.3207  0.2163 -0.5745
 3513TIP3   OH232097   6.706   2.608   2.064  0.1310  0.0310  0.3162
 3513TIP3    H132098   6.685   2.537   2.003  1.0267  0.1223 -0.1161
 3513TIP3    H232099   6.724   2.683   2.008  1.7578 -0.0853  0.6261
 3514TIP3   OH232100   3.599   5.986   0.533  0.2660  0.0219  0.4811
 3514TIP3    H132101   3.638   5.962   0.449 -0.6819 -1.4564  0.4255
 3514TIP3    H232102   3.671   6.026   0.582  0.8969  0.6949 -0.9288
 3515TIP3   OH232103   2.253   1.823   0.236  0.4786 -0.3046 -0.0374
 3515TIP3    H132104   2.335   1.824   0.186  1.4404 -2.4165  1.3723
 3515TIP3    H232105   2.262   1.749   0.295 -1.9928  0.1346  0.9947
 3516TIP3   OH232106   1.486   4.034   1.278 -0.5428  0.6119  0.7706
 3516TIP3    H132107   1.434   4.113   1.296 -0.9177  0.5802 -0.0995
 3516TIP3    H232108   1.490   3.988   1.361 -1.2034  1.0437  1.0495
 3517TIP3   OH232109   6.695   0.450   7.279  0.1644  0.0542  0.0163
 3517TIP3    H132110   6.746   0.370   7.287  3.7753  2.2087  0.6161
 3517TIP3    H232111   6.687   0.464   7.185  1.5056  0.0708 -0.1181
 3518TIP3   OH232112   5.423   0.980   8.353 -0.4632 -0.1945  0.0757
 3518TIP3    H132113   5.481   0.955   8.281  1.6807 -2.4645  2.3685
 3518TIP3    H232114   5.395   0.897   8.391 -3.2398  0.9031  0.6684
 3519TIP3   OH232115   2.553   3.773   2.190  0.3876  0.3533  0.7439
 3519TIP3    H132116   2.634   3.722   2.181  0.3302  0.5186 -1.3576
 3519TIP3    H232117   2.580   3.856   2.230  1.8675  1.5433 -2.3897
 3520TIP3   OH232118   5.618   5.280   8.477 -0.3181 -0.0277  0.2765
 3520TIP3    H132119   5.648   5.192   8.502 -2.8689 -0.4479  2.3446
 3520TIP3    H232120   5.536   5.265   8.430  0.1171  1.2006 -0.9068
 3521TIP3   OH232121   1.579   1.344   1.832  0.0885  0.1520 -0.0998
 3521TIP3    H132122   1.643   1.304   1.774 -1.9250  0.2180 -2.5302
 3521TIP3    H232123   1.537   1.412   1.779  0.0448  2.1993  2.3525
 3522TIP3   OH232124   5.112   5.217   0.497  0.0738 -0.0233  0.0528
 3522TIP3    H132125   5.181   5.283   0.505 -0.3878  0.4335  0.3498
 3522TIP3    H232126   5.033   5.268   0.479 -0.1821 -0.5441 -0.3012
 3523TIP3   OH232127   6.167   1.604   8.566 -0.0599  0.1301  0.2682
 3523TIP3    H132128   6.144   1.671   8.631 -2.1145  0.2836 -0.5552
 3523TIP3    H232129   6.232   1.647   8.510  0.9027  0.3675  1.5356
 3524TIP3   OH232130   3.096   0.647   7.738 -0.5619  0.6266  0.6463
 3524TIP3    H132131   3.178   0.668   7.782 -0.4854  0.3249  0.6437
 3524TIP3    H232132   3.037   0.622   7.809  0.1748 -1.9849  0.4380
 3525TIP3   OH232133   3.428   3.511   7.315  0.1682  0.4118 -0.7775
 3525TIP3    H132134   3.341   3.533   7.281 -1.1244 -1.2546  1.2227
 3525TIP3    H232135   3.437   3.417   7.299 -0.7758 -0.6571  3.6524
 3526TIP3   OH232136   0.261   0.950   7.172  0.5414  0.3056 -0.1813
 3526TIP3    H132137   0.309   0.987   7.247 -1.9252  1.7188  0.8183
 3526TIP3    H232138   0.256   0.856   7.190  2.1277  0.2567  0.1194
 3527TIP3   OH232139   0.347   0.113   3.321 -0.5543 -0.2632  0.2622
 3527TIP3    H132140   0.423   0.156   3.360  0.5844 -1.6266 -0.3636
 3527TIP3    H232141   0.384   0.044   3.266 -2.2945 -2.4216  1.6429
 3528TIP3   OH232142   6.877   1.485   1.243 -0.3900 -0.2029  0.3948
 3528TIP3    H132143   6.837   1.569   1.222 -1.0113 -0.1436  1.7333
 3528TIP3    H232144   6.888   1.486   1.338  0.2849 -1.3305  0.3516
 3529TIP3   OH232145   5.022   2.391   7.202 -0.2009 -0.2671  0.9061
 3529TIP3    H132146   5.029   2.484   7.181 -0.8714 -0.4374 -0.1307
 3529TIP3    H232147   4.949   2.359   7.148  1.2718 -1.8197 -0.2814
 3530TIP3   OH232148   1.125   4.164   0.934 -0.1234 -0.5193  0.2413
 3530TIP3    H132149   1.130   4.070   0.953  0.5244 -0.4181  0.5867
 3530TIP3    H232150   1.215   4.190   0.913 -0.5014 -0.2322 -1.1454
 3531TIP3   OH232151   4.511   3.698   0.951 -0.3011 -0.4299 -0.1728
 3531TIP3    H132152   4.524   3.766   0.886  0.3005 -0.0702  0.3184
 3531TIP3    H232153   4.418   3.674   0.942 -0.7109  0.9714  0.1460
 3532TIP3   OH232154   3.810   0.952   7.490 -0.3189 -0.2099  0.2737
 3532TIP3    H132155   3.860   0.965   7.409 -0.4641  0.3987  0.2819
 3532TIP3    H232156   3.814   0.857   7.505  0.2148 -0.2553 -0.1197
 3533TIP3   OH232157   4.986   1.554   8.112  0.5389  0.2203 -0.0616
 3533TIP3    H132158   4.960   1.476   8.062 -0.0645  0.6618 -0.4471
 3533TIP3    H232159   5.071   1.578   8.075  0.1633  0.4573 -0.7997
 3534TIP3   OH232160   4.540   4.825   1.962  0.2775  0.0883  0.0400
 3534TIP3    H132161   4.592   4.872   1.896 -0.1282  0.1253 -0.2592
 3534TIP3    H232162   4.486   4.893   2.003  0.8283  0.1353  0.7084
 3535TIP3   OH232163   5.793   6.172   7.297  0.2623  0.3226  0.4318
 3535TIP3    H132164   5.733   6.241   7.267  1.1003  0.8003 -0.1928
 3535TIP3    H232165   5.835   6.210   7.374 -0.6736 -0.2579  1.2543
 3536TIP3   OH232166   0.855   2.524   0.877  0.0854  0.1728  0.3471
 3536TIP3    H132167   0.763   2.536   0.899 -0.0812 -1.6822  0.8218
 3536TIP3    H232168   0.901   2.539   0.960  0.1851  0.6870  0.2033
 3537TIP3   OH232169   1.725   2.638   6.797  0.1948  1.0384  0.2280
 3537TIP3    H132170   1.693   2.727   6.814 -0.3994  0.7114  0.8745
 3537TIP3    H232171   1.816   2.650   6.770  0.2987  1.7973  0.8878
 3538TIP3   OH232172   6.713   4.986   2.179 -0.6127  0.6677  0.2572
 3538TIP3    H132173   6.755   5.072   2.182 -1.1264  0.8990  1.5697
 3538TIP3    H232174   6.780   4.924   2.208 -0.4031  0.6907 -0.1750
 3539TIP3   OH232175   4.101   2.394   0.164 -0.2567 -0.6000  0.2432
 3539TIP3    H132176   4.184   2.359   0.195  1.2902  0.5230 -2.3083
 3539TIP3    H232177   4.085   2.470   0.220  0.8887 -0.3336  0.2417
 3540TIP3   OH232178   5.136   1.397   1.501  0.1270  0.2447  0.3916
 3540TIP3    H132179   5.167   1.410   1.412 -1.6388 -1.3886 -0.5371
 3540TIP3    H232180   5.071   1.467   1.515 -0.3871 -0.1412 -0.0279
 3541TIP3   OH232181   2.529   1.735   8.226 -0.1372  0.1467  0.1115
 3541TIP3    H132182   2.566   1.657   8.184  1.7608  0.6302  0.7775
 3541TIP3    H232183   2.482   1.701   8.302  1.5998 -0.3236  1.0266
 3542TIP3   OH232184   4.751   5.793   8.573  0.4006 -0.3183 -0.2359
 3542TIP3    H132185   4.752   5.845   8.492 -0.2921 -2.1989 -1.5243
 3542TIP3    H232186   4.842   5.793   8.602  0.3057  2.2681  0.3188
 3543TIP3   OH232187   5.826   2.989   6.987 -0.0058 -0.0601 -0.2189
 3543TIP3    H132188   5.821   2.951   7.074 -1.7685  0.4212 -0.0742
 3543TIP3    H232189   5.777   2.930   6.931  2.1094 -1.0107 -1.1894
 3544TIP3   OH232190   1.000   1.770   0.534  0.0715  0.3228 -0.0022
 3544TIP3    H132191   1.013   1.697   0.473 -2.0264  1.0777 -1.4703
 3544TIP3    H232192   1.054   1.840   0.499 -0.1137  0.3517 -0.2298
 3545TIP3   OH232193   3.382   4.625   2.498  0.1199  0.5408  0.1165
 3545TIP3    H132194   3.312   4.628   2.563  0.6784 -1.5122  0.9068
 3545TIP3    H232195   3.401   4.717   2.478 -1.8163  1.1615  0.9245
 3546TIP3   OH232196   1.985   4.763   2.159  0.1753  0.3756  0.1440
 3546TIP3    H132197   1.986   4.853   2.125  1.8999  0.1223 -0.5817
 3546TIP3    H232198   1.893   4.736   2.151 -0.2268  1.7780 -0.4164
 3547TIP3   OH232199   1.800   6.302   3.001  0.0686 -0.4796 -0.0512
 3547TIP3    H132200   1.753   6.284   3.082 -1.2320 -0.3072 -0.7491
 3547TIP3    H232201   1.876   6.353   3.029 -0.9676  0.5745  0.9563
 3548TIP3   OH232202   1.284   3.337   0.905 -0.2887  0.1879 -0.1397
 3548TIP3    H132203   1.319   3.406   0.962  0.9757 -2.3052  2.3512
 3548TIP3    H232204   1.352   3.322   0.841  0.8202 -0.7482  1.1973
 3549TIP3   OH232205   2.421   1.907   7.963 -0.1778 -0.6316  0.4510
 3549TIP3    H132206   2.332   1.936   7.941  0.4405  0.7919 -0.3240
 3549TIP3    H232207   2.444   1.958   8.040  0.1997 -0.5201  0.2673
 3550TIP3   OH232208   5.440   1.504   0.070  0.3730  0.0273  0.3672
 3550TIP3    H132209   5.421   1.445   0.142  2.4334 -0.5889  0.4621
 3550TIP3    H232210   5.533   1.526   0.081  0.1756  1.6397 -0.8566
 3551TIP3   OH232211   3.995   6.025   1.129  0.7048  0.5806  0.8575
 3551TIP3    H132212   4.087   6.036   1.105  0.3283 -0.8532 -1.5595
 3551TIP3    H232213   3.997   5.967   1.205  1.7861  0.9312  1.1218
 3552TIP3   OH232214   0.761   4.047   1.332  0.2140 -0.4263 -0.0634
 3552TIP3    H132215   0.782   4.109   1.401 -0.9615 -0.2811  0.1809
 3552TIP3    H232216   0.770   4.097   1.251 -0.4717 -0.0004  0.1175
 3553TIP3   OH232217   5.558   3.171   7.029  0.2021 -0.0862 -0.1642
 3553TIP3    H132218   5.640   3.191   6.984 -0.3900  1.2867 -0.6816
 3553TIP3    H232219   5.519   3.100   6.977  0.2637  0.4190 -0.9183
 3554TIP3   OH232220   5.980   4.562   8.434 -0.0886 -0.2683  0.2069
 3554TIP3    H132221   5.985   4.472   8.404 -0.2700 -0.9010  1.9525
 3554TIP3    H232222   5.904   4.564   8.493  0.4345  0.7900  0.8897
 3555TIP3   OH232223   4.573   3.434   8.120 -0.0404 -0.1503  0.1496
 3555TIP3    H132224   4.532   3.382   8.051  1.3093  1.1268 -1.7323
 3555TIP3    H232225   4.649   3.382   8.148 -1.5817 -1.4958  2.0470
 3556TIP3   OH232226   3.516   1.649   7.568  0.2533  0.4832  0.1457
 3556TIP3    H132227   3.539   1.602   7.487  2.4192 -0.1647  1.0508
 3556TIP3    H232228   3.526   1.584   7.637  1.8995  1.8549  1.2791
 3557TIP3   OH232229   6.387   1.510   7.858 -0.5007 -0.3041 -0.5473
 3557TIP3    H132230   6.402   1.588   7.805  0.0723  0.4882  0.7107
 3557TIP3    H232231   6.473   1.491   7.897 -0.8160 -1.0706 -0.2195
 3558TIP3   OH232232   2.667   2.749   1.534 -0.0055 -0.3389  0.3991
 3558TIP3    H132233   2.631   2.833   1.506 -0.6577 -0.4954  0.7569
 3558TIP3    H232234   2.628   2.685   1.475  0.9719 -0.3398 -0.2818
 3559TIP3   OH232235   2.263   6.206   1.911  0.0846  0.5947 -0.1500
 3559TIP3    H132236   2.215   6.235   1.988 -0.4191  1.7395 -0.8596
 3559TIP3    H232237   2.355   6.207   1.937 -0.0608  1.2111  0.3592
 3560TIP3   OH232238   4.453   3.200   7.220 -0.0006  0.2265  1.0432
 3560TIP3    H132239   4.463   3.259   7.145 -1.1316  0.3387  0.9595
 3560TIP3    H232240   4.538   3.200   7.262  0.4143  0.8188  0.2280
 3561TIP3   OH232241   1.962   4.328   1.217 -0.2521 -1.0171  0.1402
 3561TIP3    H132242   1.892   4.387   1.247 -0.3629 -0.0251 -1.8608
 3561TIP3    H232243   1.952   4.327   1.121  2.1629 -1.2464 -0.1586
 3562TIP3   OH232244   1.778   3.356   0.800 -0.1142  0.4668 -0.4930
 3562TIP3    H132245   1.831   3.390   0.872 -1.0116 -1.4580  1.1883
 3562TIP3    H232246   1.841   3.315   0.741  0.5367  0.9131 -0.1234
 3563TIP3   OH232247   4.717   6.913   1.868  0.2908 -0.2064 -0.1484
 3563TIP3    H132248   4.717   6.880   1.779 -0.7424  1.1661 -0.6955
 3563TIP3    H232249   4.773   6.852   1.917 -0.3921 -1.8940 -1.3754
 3564TIP3   OH232250   3.912   4.893   8.093 -0.7264 -0.5369 -0.2052
 3564TIP3    H132251   3.846   4.828   8.117 -1.1715 -0.7825 -1.9613
 3564TIP3    H232252   3.867   4.952   8.033  0.2805  0.0846 -0.3754
 3565TIP3   OH232253   0.701   6.075   1.571 -0.4751 -0.1390 -0.1944
 3565TIP3    H132254   0.745   6.058   1.654 -1.1414 -2.4119 -0.2616
 3565TIP3    H232255   0.608   6.060   1.590 -1.1178  2.7256 -0.5314
 3566TIP3   OH232256   2.985   2.138   0.481  0.1290  0.1389 -0.1329
 3566TIP3    H132257   3.065   2.156   0.531 -0.1659  0.5078  0.2101
 3566TIP3    H232258   2.944   2.224   0.470 -1.5299 -0.2958  1.8945
 3567TIP3   OH232259   3.961   5.000   7.382 -0.9250  0.3552 -0.3750
 3567TIP3    H132260   4.028   5.067   7.393 -0.3121 -0.3476  0.3841
 3567TIP3    H232261   3.954   4.959   7.469 -1.7122 -0.1590 -0.6677
 3568TIP3   OH232262   4.566   5.902   2.265 -0.4754 -0.2466  0.1186
 3568TIP3    H132263   4.566   5.986   2.220 -0.0212 -0.8190 -1.0066
 3568TIP3    H232264   4.651   5.864   2.244 -1.2841 -1.6707 -0.7802
 3569TIP3   OH232265   4.130   0.711   0.675  1.4076 -0.0347 -0.6308
 3569TIP3    H132266   4.122   0.767   0.597 -1.2271 -0.9482 -1.1083
 3569TIP3    H232267   4.100   0.766   0.747 -2.0641 -0.9031 -1.2234
 3570TIP3   OH232268   3.567   5.283   2.028  0.4317  0.3952  0.5920
 3570TIP3    H132269   3.498   5.268   2.093 -2.5292 -0.2650 -2.4815
 3570TIP3    H232270   3.586   5.196   1.993  1.2334  0.8573 -0.1513
 3571TIP3   OH232271   3.647   3.118   0.540  0.4429  0.0471 -0.2508
 3571TIP3    H132272   3.654   3.168   0.622 -0.9693 -0.0783 -0.0368
 3571TIP3    H232273   3.687   3.034   0.560  0.9908  0.3566  0.0028
 3572TIP3   OH232274   5.809   6.758   7.924 -0.0347  0.6748 -0.3667
 3572TIP3    H132275   5.822   6.829   7.861 -0.7202  0.3170 -0.9323
 3572TIP3    H232276   5.762   6.691   7.874 -1.8303  0.9469  0.8825
 3573TIP3   OH232277   4.117   4.360   7.056 -0.0221  0.1518  0.1816
 3573TIP3    H132278   4.076   4.277   7.078 -1.5546  1.0608  0.9676
 3573TIP3    H232279   4.172   4.381   7.131 -2.3525  1.4534  1.6681
 3574TIP3   OH232280   6.727   0.271   2.230 -0.0697  0.1473  0.1811
 3574TIP3    H132281   6.664   0.207   2.262 -1.1623  1.6935  1.2589
 3574TIP3    H232282   6.682   0.355   2.237  2.0319  1.3028  0.8729
 3575TIP3   OH232283   4.161   1.714   0.929  0.0412  0.4726  0.4347
 3575TIP3    H132284   4.169   1.806   0.905 -0.9179  0.9548  1.7927
 3575TIP3    H232285   4.073   1.708   0.967 -0.7581 -1.4661 -1.4969
 3576TIP3   OH232286   0.013   0.710   0.455  0.0159  0.5847 -0.2859
 3576TIP3    H132287   0.015   0.652   0.379 -1.1305  1.5003 -1.0577
 3576TIP3    H232288   0.066   0.666   0.521 -1.1119 -1.5229 -0.7158
 3577TIP3   OH232289   0.140   6.177   1.626  0.1160  0.3437 -0.3162
 3577TIP3    H132290   0.127   6.192   1.533  0.8006  0.2114 -0.4379
 3577TIP3    H232291   0.134   6.082   1.636  0.4022  0.3279 -0.2857
 3578TIP3   OH232292   1.551   4.688   1.454  0.0603  0.6728 -0.0961
 3578TIP3    H132293   1.590   4.657   1.536 -0.7946 -1.0837 -0.3124
 3578TIP3    H232294   1.570   4.782   1.453  1.1085  0.5263  1.5368
 3579TIP3   OH232295   6.202   0.231   7.426 -0.4572  0.3130  0.4655
 3579TIP3    H132296   6.237   0.142   7.419  0.5523  0.6516  1.0648
 3579TIP3    H232297   6.111   0.223   7.397 -0.4582 -0.9661  0.7703
 3580TIP3   OH232298   3.440   3.437   1.384 -0.5198 -0.3063  0.0723
 3580TIP3    H132299   3.502   3.438   1.311 -0.7552 -2.0207 -0.2039
 3580TIP3    H232300   3.493   3.415   1.460 -0.4034  0.6840  0.2834
 3581TIP3   OH232301   6.049   4.520   0.299  0.4432 -0.5410  0.2499
 3581TIP3    H132302   6.125   4.539   0.243  0.5454 -1.0317  0.2217
 3581TIP3    H232303   5.982   4.582   0.269  0.3966 -0.9995 -0.6261
 3582TIP3   OH232304   3.426   0.931   0.425  0.5136  0.4250 -0.2257
 3582TIP3    H132305   3.393   0.957   0.511  2.3271  0.2878  0.5689
 3582TIP3    H232306   3.498   0.992   0.407  1.1077 -0.4528 -0.9619
 3583TIP3   OH232307   2.916   4.185   7.873  0.0981 -0.4014  0.0522
 3583TIP3    H132308   2.904   4.260   7.814 -0.5840 -0.4593  0.1083
 3583TIP3    H232309   2.896   4.219   7.960 -0.1497 -0.6333  0.0870
 3584TIP3   OH232310   0.139   1.974   1.276  0.3714 -0.2603  0.0624
 3584TIP3    H132311   0.184   1.953   1.358  0.0196 -0.6258  0.1656
 3584TIP3    H232312   0.049   1.944   1.289  0.1966  0.0953 -0.2919
 3585TIP3   OH232313   5.791   1.899   1.670 -0.3640  0.1305  0.1224
 3585TIP3    H132314   5.808   1.817   1.715 -0.3610  0.0351 -0.0513
 3585TIP3    H232315   5.722   1.941   1.720 -1.1546 -0.4898 -0.4312
 3586TIP3   OH232316   1.829   3.618   2.148  0.0917 -0.2695  0.2139
 3586TIP3    H132317   1.852   3.541   2.097  0.9903  0.2167 -0.1352
 3586TIP3    H232318   1.906   3.635   2.202  0.2404  0.8573 -0.3121
 3587TIP3   OH232319   6.877   2.433   1.566 -0.3345 -0.6105  0.2248
 3587TIP3    H132320   6.958   2.482   1.583 -1.0381  0.4584  0.5823
 3587TIP3    H232321   6.904   2.361   1.508  0.9823 -0.6583  0.8700
 3588TIP3   OH232322   3.414   1.864   1.002 -0.1762 -0.5906  0.6271
 3588TIP3    H132323   3.386   1.931   1.065  0.0794 -0.8536  1.0277
 3588TIP3    H232324   3.364   1.786   1.027  0.3972 -0.8733  0.9165
 3589TIP3   OH232325   4.146   4.215   6.679 -0.2033  0.6232  0.1990
 3589TIP3    H132326   4.177   4.129   6.704 -0.3858  0.4685 -0.1048
 3589TIP3    H232327   4.050   4.210   6.687 -0.2189  0.7802  0.1279
 3590TIP3   OH232328   0.962   3.607   1.292  0.4301  0.3971 -0.0138
 3590TIP3    H132329   1.023   3.538   1.318  0.2962  0.8399  1.5504
 3590TIP3    H232330   0.876   3.565   1.293  0.5168  0.1845 -0.6744
 3591TIP3   OH232331   4.814   2.315   8.008  0.0981  0.3772  0.2022
 3591TIP3    H132332   4.894   2.318   8.061  1.4194 -3.4925 -1.2380
 3591TIP3    H232333   4.744   2.294   8.070  1.0604 -0.9308  0.8764
 3592TIP3   OH232334   6.267   3.905   8.375  0.0248 -0.2626  0.1828
 3592TIP3    H132335   6.361   3.905   8.395 -0.1118 -1.1699  0.8888
 3592TIP3    H232336   6.262   3.915   8.280  0.8033  0.7088  0.2264
 3593TIP3   OH232337   4.572   5.757   1.805 -0.0305  0.3476 -0.1564
 3593TIP3    H132338   4.551   5.674   1.761 -0.2624  0.1569  0.3047
 3593TIP3    H232339   4.629   5.803   1.743 -0.0298 -0.0869 -0.4874
 3594TIP3   OH232340   3.801   3.636   0.728  0.2132  0.3621  0.2402
 3594TIP3    H132341   3.808   3.655   0.821  1.4786  0.0089  0.2345
 3594TIP3    H232342   3.719   3.678   0.701  0.5143  1.6536  1.2259
 3595TIP3   OH232343   2.394   3.473   7.398 -0.0387  0.0715 -0.4579
 3595TIP3    H132344   2.406   3.421   7.318 -0.2705 -0.1414 -0.3574
 3595TIP3    H232345   2.482   3.505   7.419  0.2803 -1.0164 -0.0343
 3596TIP3   OH232346   5.819   4.733   1.889 -0.4220 -0.3647 -0.1026
 3596TIP3    H132347   5.758   4.781   1.945 -1.0515  1.1905 -2.0226
 3596TIP3    H232348   5.812   4.775   1.803  1.9749 -1.3488 -0.8798
 3597TIP3   OH232349   5.890   3.280   8.343 -0.1665  0.2138 -0.3553
 3597TIP3    H132350   5.976   3.320   8.333  0.4324 -1.0897 -0.5521
 3597TIP3    H232351   5.861   3.264   8.253 -0.0881 -0.4362 -0.2670
 3598TIP3   OH232352   0.769   2.087   1.198  0.0229  0.0780 -0.1442
 3598TIP3    H132353   0.829   2.128   1.135 -1.4587  0.8277 -1.1236
 3598TIP3    H232354   0.826   2.032   1.252  1.3437 -0.7501 -2.2399
 3599TIP3   OH232355   3.709   4.225   6.856 -0.7266  0.4923 -0.1703
 3599TIP3    H132356   3.765   4.290   6.814 -1.2438  0.7239 -0.5167
 3599TIP3    H232357   3.620   4.252   6.832 -0.9144 -0.7706 -0.9402
 3600TIP3   OH232358   2.005   4.312   0.959 -0.6710  0.4197 -0.0635
 3600TIP3    H132359   1.955   4.320   0.877  0.2282  0.7263 -0.6021
 3600TIP3    H232360   2.066   4.240   0.942  0.5600  1.4724 -0.2387
 3601TIP3   OH232361   1.549   3.894   0.370 -0.1709  0.0166 -0.6443
 3601TIP3    H132362   1.566   3.978   0.414 -2.0174  1.3085 -2.2050
 3601TIP3    H232363   1.466   3.864   0.407 -0.4783 -0.1217 -1.4184
 3602TIP3   OH232364   1.220   1.597   7.326 -0.1293  0.0984  0.7423
 3602TIP3    H132365   1.200   1.624   7.416  0.7514 -0.2112  1.0389
 3602TIP3    H232366   1.219   1.501   7.329  0.0721  0.0859  0.4572
 3603TIP3   OH232367   6.320   4.295   1.122  0.0187  0.2688  0.2153
 3603TIP3    H132368   6.324   4.273   1.215  0.6848  0.8425  0.3294
 3603TIP3    H232369   6.406   4.271   1.087 -0.8690 -1.8193 -0.7090
 3604TIP3   OH232370   6.557   2.036   0.813 -0.0971  0.1692 -0.1607
 3604TIP3    H132371   6.531   2.126   0.832 -1.2905 -0.0854 -0.5164
 3604TIP3    H232372   6.585   2.037   0.722  2.0898  0.6292  0.4713
 3605TIP3   OH232373   6.449   3.447   7.700 -0.2034 -0.0869  0.2378
 3605TIP3    H132374   6.406   3.474   7.781 -0.5636  0.3423 -0.0916
 3605TIP3    H232375   6.535   3.415   7.728 -0.0536  0.7066  0.7174
 3606TIP3   OH232376   1.918   3.860   0.908  0.0160  0.2437 -0.2958
 3606TIP3    H132377   1.969   3.783   0.934 -0.8805 -0.1482  0.3605
 3606TIP3    H232378   1.882   3.893   0.990 -2.3172 -0.5942 -0.8991
 3607TIP3   OH232379   6.433   4.350   0.275  0.2492 -0.2086 -0.2509
 3607TIP3    H132380   6.489   4.377   0.202 -1.5604  0.2744 -1.5110
 3607TIP3    H232381   6.444   4.418   0.341  0.8073  0.0917 -0.6484
 3608TIP3   OH232382   3.460   0.993   8.539  0.0444 -0.4147  0.8147
 3608TIP3    H132383   3.421   0.975   8.625  0.8140 -0.2883  1.1968
 3608TIP3    H232384   3.537   0.936   8.536  0.7694  0.5499  0.7633
 3609TIP3   OH232385   5.026   5.688   0.326 -0.4473  0.2280  0.3873
 3609TIP3    H132386   5.097   5.739   0.285 -1.3415  2.2069  1.1479
 3609TIP3    H232387   5.034   5.601   0.288  1.2616  0.8821 -0.9126
 3610TIP3   OH232388   3.123   0.935   2.877 -0.0870  0.0617  0.2058
 3610TIP3    H132389   3.069   0.965   2.804 -0.4429  0.5505  0.6558
 3610TIP3    H232390   3.150   1.015   2.921  0.2841 -0.2198  0.4987
 3611TIP3   OH232391   3.136   5.284   0.244 -0.0880 -0.1398  0.4885
 3611TIP3    H132392   3.217   5.324   0.212 -0.2036 -0.1216  0.2102
 3611TIP3    H232393   3.142   5.193   0.214 -1.2140  0.3949 -1.5930
 3612TIP3   OH232394   5.213   0.321   8.576  1.1036 -0.2308 -0.4922
 3612TIP3    H132395   5.264   0.351   8.501  0.3143 -0.5681 -1.1844
 3612TIP3    H232396   5.229   0.226   8.579 -0.5487 -0.5868 -1.5969
 3613TIP3   OH232397   5.619   5.668   0.914 -0.2834  0.1290  0.0609
 3613TIP3    H132398   5.602   5.574   0.922 -0.8170  0.2058 -0.1688
 3613TIP3    H232399   5.595   5.689   0.823  0.0006  0.4527  0.0603
 3614TIP3   OH232400   4.275   2.588   7.879 -0.3478  0.0099  0.9878
 3614TIP3    H132401   4.285   2.550   7.792 -0.2645  2.1906 -0.0200
 3614TIP3    H232402   4.269   2.512   7.938 -0.1574 -1.5154 -0.8601
 3615TIP3   OH232403   3.967   1.610   3.118 -0.1363  0.8657 -0.3055
 3615TIP3    H132404   3.954   1.547   3.048 -2.1916  0.5609  0.2695
 3615TIP3    H232405   4.023   1.565   3.181 -1.6614 -0.4909  0.1472
 3616TIP3   OH232406   5.993   4.291   8.344 -0.2062  0.3237  0.2418
 3616TIP3    H132407   5.976   4.264   8.254 -3.9822 -2.2053  1.4776
 3616TIP3    H232408   6.076   4.249   8.366 -0.0990 -0.4852 -1.5229
 3617TIP3   OH232409   3.573   0.436   7.353 -0.1867  0.5317 -0.9963
 3617TIP3    H132410   3.629   0.457   7.279  2.0268 -0.8613  0.1690
 3617TIP3    H232411   3.606   0.352   7.385 -2.8353 -0.2686 -0.0692
 3618TIP3   OH232412   4.288   0.197   1.775  0.1415 -0.6482  0.0580
 3618TIP3    H132413   4.354   0.201   1.845 -0.2493  0.4251  0.3839
 3618TIP3    H232414   4.215   0.249   1.808 -1.3279 -2.6847  0.1504
 3619TIP3   OH232415   5.801   4.587   6.946  0.0639 -0.2920 -0.5650
 3619TIP3    H132416   5.811   4.628   7.033 -1.5788 -1.2578  0.1333
 3619TIP3    H232417   5.872   4.625   6.894  2.9704 -1.8010  1.9436
 3620TIP3   OH232418   3.805   6.467   7.929  0.3225  0.6047 -0.2988
 3620TIP3    H132419   3.784   6.408   8.001  0.6244  0.9604  0.0896
 3620TIP3    H232420   3.724   6.514   7.911 -0.6081 -1.5275 -2.1754
 3621TIP3   OH232421   5.809   1.035   6.865 -0.0146 -0.1020 -0.3037
 3621TIP3    H132422   5.719   1.065   6.880 -0.3508  0.6030 -3.1409
 3621TIP3    H232423   5.809   0.945   6.897 -1.3738  0.2664  0.8637
 3622TIP3   OH232424   0.434   1.653   7.314 -0.1505  0.1756 -0.2755
 3622TIP3    H132425   0.363   1.594   7.289 -0.9873  1.0100  0.0488
 3622TIP3    H232426   0.391   1.738   7.327  0.6074  0.3073  1.6540
 3623TIP3   OH232427   3.379   3.567   2.794  0.4232  0.2593 -0.4510
 3623TIP3    H132428   3.364   3.658   2.819 -0.4289 -0.1862  0.7554
 3623TIP3    H232429   3.318   3.552   2.721  1.3830  0.9541 -1.4309
 3624TIP3   OH232430   6.542   4.112   8.166 -0.1341 -0.1461  0.4756
 3624TIP3    H132431   6.535   4.171   8.241  0.5780 -0.2624  0.6437
 3624TIP3    H232432   6.626   4.066   8.179 -0.4842 -0.9039  0.1434
 3625TIP3   OH232433   3.759   4.580   1.394  0.1212 -0.0242  0.1582
 3625TIP3    H132434   3.691   4.527   1.435  0.3478 -0.7978 -0.4429
 3625TIP3    H232435   3.781   4.533   1.314  0.2242  1.0669 -0.4657
 3626TIP3   OH232436   2.569   2.660   1.120  0.6444 -0.0002 -0.8330
 3626TIP3    H132437   2.556   2.636   1.212  1.5481  0.7265 -0.5017
 3626TIP3    H232438   2.514   2.599   1.071 -2.5676  1.7432  0.3253
 3627TIP3   OH232439   6.734   4.045   7.717  0.4512  0.0891 -0.2079
 3627TIP3    H132440   6.813   4.099   7.721  1.8037 -1.8549  0.3274
 3627TIP3    H232441   6.671   4.092   7.772  2.0022  0.4841  1.3259
 3628TIP3   OH232442   6.002   0.302   6.883  0.1635 -0.0633  0.2030
 3628TIP3    H132443   5.942   0.248   6.832  0.0740  1.0579 -0.9252
 3628TIP3    H232444   5.951   0.380   6.905  0.8241  0.3432  0.3163
 3629TIP3   OH232445   4.904   4.847   1.238 -0.6964  0.0140  0.0556
 3629TIP3    H132446   4.828   4.808   1.282 -1.4170 -1.1488 -2.0711
 3629TIP3    H232447   4.944   4.773   1.192  0.2123  1.1083 -0.9338
 3630TIP3   OH232448   5.128   5.027   1.291  0.1388  0.6635 -0.2505
 3630TIP3    H132449   5.055   4.968   1.277  0.4059 -0.0883  1.2187
 3630TIP3    H232450   5.101   5.110   1.253 -0.7667 -0.0604 -1.2282
 3631TIP3   OH232451   2.306   4.486   1.454 -0.4325 -0.2003  0.2844
 3631TIP3    H132452   2.242   4.416   1.438 -0.5356  0.1336 -0.9126
 3631TIP3    H232453   2.336   4.472   1.543 -1.7206 -0.7473  0.6620
 3632TIP3   OH232454   1.054   0.413   8.063  0.3295  0.0039  0.2258
 3632TIP3    H132455   0.963   0.444   8.059  0.0725 -0.8378 -1.0102
 3632TIP3    H232456   1.048   0.325   8.099  0.8079  0.4062  1.3432
 3633TIP3   OH232457   5.850   0.467   1.015  0.2561  0.0962 -0.1526
 3633TIP3    H132458   5.914   0.466   1.086  0.8270 -1.9415 -0.6313
 3633TIP3    H232459   5.767   0.489   1.058  0.7724 -0.0659  0.9691
 3634TIP3   OH232460   4.660   0.854   1.681  0.3280 -0.3009 -0.4163
 3634TIP3    H132461   4.719   0.921   1.646  0.5870 -0.0356  0.5101
 3634TIP3    H232462   4.613   0.898   1.752  0.1335 -0.9575 -0.1316
 3635TIP3   OH232463   2.788   5.274   6.866  0.2666  0.7403 -0.1358
 3635TIP3    H132464   2.797   5.341   6.798  0.0595  1.5542  0.6287
 3635TIP3    H232465   2.693   5.261   6.874  0.2950  0.5826 -0.0599
 3636TIP3   OH232466   0.171   4.999   7.926  0.2318 -0.2428  0.2452
 3636TIP3    H132467   0.227   4.943   7.980 -1.1839 -2.4200 -0.4386
 3636TIP3    H232468   0.137   5.065   7.986  1.9366 -0.0802  1.0828
 3637TIP3   OH232469   3.909   2.091   7.907 -0.2246 -0.4174  0.0711
 3637TIP3    H132470   3.889   2.078   7.814 -0.2741 -1.4869  0.2256
 3637TIP3    H232471   3.997   2.054   7.918 -0.7444 -1.4763  0.7200
 3638TIP3   OH232472   1.211   0.613   2.051 -0.3314 -0.3680 -0.0103
 3638TIP3    H132473   1.251   0.592   2.136  0.7320  0.9750 -0.1523
 3638TIP3    H232474   1.171   0.698   2.064 -1.3436 -0.7528 -0.4993
 3639TIP3   OH232475   4.305   2.029   7.712  0.1109 -0.4813 -0.2259
 3639TIP3    H132476   4.321   1.983   7.629  1.1718  0.1395 -0.3766
 3639TIP3    H232477   4.384   2.080   7.727 -0.6805  0.5959  0.4006
 3640TIP3   OH232478   0.898   5.209   2.026  0.0774 -0.1787 -0.4718
 3640TIP3    H132479   0.804   5.207   2.008 -0.1245  0.7594  0.3731
 3640TIP3    H232480   0.904   5.228   2.120  1.0888 -2.4555  0.0043
 3641TIP3   OH232481   6.418   2.473   1.105 -0.1908  0.4423 -0.1687
 3641TIP3    H132482   6.354   2.487   1.175  1.6246  1.6375  1.3496
 3641TIP3    H232483   6.400   2.543   1.042 -0.6222  0.5248  0.0406
 3642TIP3   OH232484   0.276   0.351   1.757  0.3091 -0.0478  0.0840
 3642TIP3    H132485   0.262   0.445   1.764  0.0433  0.0975 -1.8044
 3642TIP3    H232486   0.292   0.322   1.846  0.8910  1.8616  0.6348
 3643TIP3   OH232487   2.518   3.970   1.899 -0.3291 -0.3091 -0.1828
 3643TIP3    H132488   2.589   3.968   1.964 -1.3241  3.7298  1.3518
 3643TIP3    H232489   2.446   3.924   1.941  0.5198 -2.2187 -0.7007
 3644TIP3   OH232490   3.852   5.690   1.753  0.1614 -0.4389  0.5557
 3644TIP3    H132491   3.791   5.635   1.703  1.0565 -0.5373 -0.4505
 3644TIP3    H232492   3.849   5.775   1.708 -0.3812  0.0233  1.4388
 3645TIP3   OH232493   1.352   3.682   0.736 -0.0972 -0.1000  0.0018
 3645TIP3    H132494   1.321   3.721   0.818  1.5953  0.6287  0.3368
 3645TIP3    H232495   1.441   3.715   0.726  0.9297 -2.7668 -0.4572
 3646TIP3   OH232496   5.395   5.505   8.327 -0.1128 -0.2649  0.4665
 3646TIP3    H132497   5.423   5.483   8.238  0.9465 -0.5094  0.8435
 3646TIP3    H232498   5.373   5.420   8.366  0.5986 -0.3013  0.8102
 3647TIP3   OH232499   6.659   0.044   0.672 -0.4570  0.1606 -0.1678
 3647TIP3    H132500   6.675   0.127   0.627  1.6250  1.0713  2.0497
 3647TIP3    H232501   6.734  -0.011   0.649 -2.0495 -1.3821 -2.0016
 3648TIP3   OH232502   3.029   6.331   0.964  0.0412 -0.2456 -0.1690
 3648TIP3    H132503   3.118   6.341   0.998  0.5159 -0.8575 -1.1756
 3648TIP3    H232504   2.977   6.309   1.042  0.4664  1.5478  0.6781
 3649TIP3   OH232505   6.889   5.207   0.710  1.1125  0.4138  0.5201
 3649TIP3    H132506   6.841   5.214   0.628  2.7068 -0.2924 -0.5190
 3649TIP3    H232507   6.851   5.131   0.753 -0.3065  1.2805  0.8761
 3650TIP3   OH232508   4.632   1.313   8.114 -0.0991 -0.1973  0.2704
 3650TIP3    H132509   4.574   1.377   8.157 -0.8021 -0.2476 -0.5709
 3650TIP3    H232510   4.663   1.257   8.185 -1.7402 -0.6713  0.6504
 3651TIP3   OH232511   2.284   0.269   0.284 -0.1546  0.1838  0.0575
 3651TIP3    H132512   2.374   0.270   0.251 -0.2799 -1.0609 -0.3846
 3651TIP3    H232513   2.265   0.176   0.299 -0.2445  0.6162  3.3486
 3652TIP3   OH232514   1.428   1.388   7.392  0.4489  0.6219  0.0566
 3652TIP3    H132515   1.404   1.350   7.307 -2.9076  0.0266  1.1121
 3652TIP3    H232516   1.503   1.337   7.421 -0.2201 -1.2202 -1.2534
 3653TIP3   OH232517   2.558   5.618   8.064  0.4641  0.0499 -0.2514
 3653TIP3    H132518   2.605   5.606   8.147 -2.3003 -1.8394  1.2283
 3653TIP3    H232519   2.622   5.597   7.997  2.4591  0.3504  1.4536
 3654TIP3   OH232520   2.548   2.941   1.154  0.1730 -0.0811 -0.1094
 3654TIP3    H132521   2.574   2.849   1.150 -0.2306 -0.1808 -0.4377
 3654TIP3    H232522   2.564   2.966   1.245 -0.1368 -0.5993  0.0918
 3655TIP3   OH232523   1.196   1.241   8.135 -0.1843 -0.0962 -0.0485
 3655TIP3    H132524   1.133   1.273   8.201  0.1635  2.6559 -0.8984
 3655TIP3    H232525   1.276   1.290   8.153  0.8466 -1.4720 -0.7334
 3656TIP3   OH232526   3.493   6.466   7.833 -0.6611 -0.0502  0.2458
 3656TIP3    H132527   3.499   6.484   7.739 -0.4889 -0.6211  0.1409
 3656TIP3    H232528   3.484   6.371   7.839 -1.6755  0.0621  0.7718
 3657TIP3   OH232529   0.747   5.358   2.258 -0.4538 -0.3462  0.5529
 3657TIP3    H132530   0.719   5.267   2.249 -2.8659  0.1571  2.1438
 3657TIP3    H232531   0.675   5.409   2.220  0.7268  0.9515 -0.0523
 3658TIP3   OH232532   1.474   1.416   6.617  0.5648 -0.2182  0.4034
 3658TIP3    H132533   1.495   1.483   6.682 -2.8286 -0.8376  2.3361
 3658TIP3    H232534   1.379   1.411   6.617  0.5973 -3.5028 -1.2771
 3659TIP3   OH232535   6.667   5.916   7.617 -0.0907  0.0375 -0.2544
 3659TIP3    H132536   6.713   5.845   7.662  0.2424  0.2768 -0.2163
 3659TIP3    H232537   6.576   5.886   7.612  0.2062 -0.7834 -1.0041
 3660TIP3   OH232538   1.473   6.343   3.061  0.2232 -0.5528 -0.1560
 3660TIP3    H132539   1.413   6.411   3.092  2.3127  1.4663 -0.2913
 3660TIP3    H232540   1.428   6.260   3.082 -1.7123  0.8133  1.4807
 3661TIP3   OH232541   4.344   1.782   8.288 -0.2874  0.2412 -0.0006
 3661TIP3    H132542   4.427   1.809   8.249  0.8806  0.1615  2.2546
 3661TIP3    H232543   4.312   1.861   8.332 -0.9406  0.0292 -0.0876
 3662TIP3   OH232544   2.361   2.912   1.472  0.8807  0.3269  0.1476
 3662TIP3    H132545   2.445   2.942   1.437 -0.5756  2.2676 -2.0499
 3662TIP3    H232546   2.351   2.960   1.554  0.9363  1.9489 -0.7493
 3663TIP3   OH232547   4.280   2.042   2.082  0.2329  0.5864  0.0917
 3663TIP3    H132548   4.211   2.004   2.137  0.9092 -0.7765  0.0522
 3663TIP3    H232549   4.294   2.129   2.117  1.4460 -0.6286  2.9064
 3664TIP3   OH232550   6.625   4.633   2.015 -0.0102 -0.0376 -0.1332
 3664TIP3    H132551   6.688   4.562   2.030  1.2632  0.7233 -1.5587
 3664TIP3    H232552   6.607   4.668   2.102  2.3701  0.3758  0.2687
 3665TIP3   OH232553   1.685   5.693   0.895 -0.2656  0.0003 -0.0303
 3665TIP3    H132554   1.650   5.782   0.898 -0.8802 -0.1893 -1.1380
 3665TIP3    H232555   1.645   5.648   0.970 -1.1189  0.2457 -0.3375
 3666TIP3   OH232556   1.925   4.991   1.970 -0.0153 -0.2733 -0.5476
 3666TIP3    H132557   1.867   5.049   2.020 -0.1688 -0.5298 -0.4222
 3666TIP3    H232558   1.900   5.004   1.879  1.0236  1.0395 -0.6795
 3667TIP3   OH232559   0.479   3.804   1.104  0.2848  0.5155 -0.0714
 3667TIP3    H132560   0.471   3.866   1.177  0.5191 -0.9827  1.2672
 3667TIP3    H232561   0.573   3.804   1.084  0.3164  0.4295  0.0752
 3668TIP3   OH232562   4.901   2.162   7.797  0.1579  0.4661  0.0089
 3668TIP3    H132563   4.872   2.087   7.850 -0.8261  0.2963 -0.7461
 3668TIP3    H232564   4.870   2.239   7.845  2.3872  0.5108  1.5337
 3669TIP3   OH232565   2.503   1.982   2.168 -0.0881  0.8163 -0.2248
 3669TIP3    H132566   2.460   2.067   2.176 -0.7335  0.5089 -0.4035
 3669TIP3    H232567   2.497   1.960   2.075  0.0943  0.5830 -0.1832
 3670TIP3   OH232568   2.777   4.694   7.642 -0.0347  0.8367 -0.0159
 3670TIP3    H132569   2.750   4.706   7.551 -1.2591 -2.0005 -0.1186
 3670TIP3    H232570   2.698   4.668   7.688  0.9413  0.3558  1.4625
 3671TIP3   OH232571   6.148   1.583   0.980  0.3430 -0.0415 -0.1201
 3671TIP3    H132572   6.155   1.524   1.056  2.3480  0.2222 -0.0537
 3671TIP3    H232573   6.113   1.664   1.016  0.6496 -0.1344  0.4031
 3672TIP3   OH232574   5.758   1.523   8.555 -0.2337 -0.0227  0.0638
 3672TIP3    H132575   5.715   1.447   8.593  1.9813 -0.8503  1.0851
 3672TIP3    H232576   5.757   1.588   8.626 -0.3100  0.1866 -0.1251
 3673TIP3   OH232577   5.038   0.017   0.534  0.1877 -0.3005 -0.1096
 3673TIP3    H132578   5.057   0.081   0.465  0.2561 -0.3258 -0.1134
 3673TIP3    H232579   4.951  -0.017   0.511  0.3923 -0.6145 -0.4122
 3674TIP3   OH232580   0.636   4.257   0.803  0.1358  0.7441 -0.4496
 3674TIP3    H132581   0.562   4.307   0.770  0.2682  0.0044 -1.9687
 3674TIP3    H232582   0.713   4.298   0.763  0.6270  1.8269  1.5216
 3675TIP3   OH232583   6.600   6.002   8.558 -0.1204  0.1067 -0.1613
 3675TIP3    H132584   6.640   6.084   8.585 -1.2070  0.1881  1.3606
 3675TIP3    H232585   6.514   6.003   8.599 -0.7390 -1.1344 -1.3458
 3676TIP3   OH232586   6.647   3.627   0.795 -0.4494  0.6395 -0.1972
 3676TIP3    H132587   6.641   3.715   0.760  1.1542  0.7852 -0.1469
 3676TIP3    H232588   6.673   3.639   0.887 -0.3548  0.1197 -0.1536
 3677TIP3   OH232589   3.417   0.448   1.573  0.1045 -0.7561 -0.3166
 3677TIP3    H132590   3.426   0.413   1.661 -0.1739  1.0857  0.4958
 3677TIP3    H232591   3.501   0.429   1.531  0.1519 -1.8534  0.2565
 3678TIP3   OH232592   2.479   5.256   0.607  0.3424 -0.7209  0.3167
 3678TIP3    H132593   2.384   5.273   0.604  0.3606 -0.3113  1.4302
 3678TIP3    H232594   2.518   5.344   0.604  0.7465 -0.9262 -1.1961
 3679TIP3   OH232595   3.278   3.047   3.475 -0.7344 -0.1814  0.7692
 3679TIP3    H132596   3.278   2.957   3.444 -1.0742  0.3343 -0.8023
 3679TIP3    H232597   3.312   3.098   3.402  0.1196  0.9045  1.8760
 3680TIP3   OH232598   5.280   0.620   8.245 -0.2969  0.2323 -0.3661
 3680TIP3    H132599   5.352   0.607   8.184  0.4142  0.4293  0.4161
 3680TIP3    H232600   5.209   0.565   8.211  0.7593 -1.2549 -0.2460
 3681TIP3   OH232601   0.456   3.608   6.840  0.5345 -0.2326 -0.1033
 3681TIP3    H132602   0.470   3.702   6.834  0.8112 -0.3074 -0.7222
 3681TIP3    H232603   0.494   3.583   6.925  2.0253 -0.0493 -0.6878
 3682TIP3   OH232604   6.321   0.144   7.026 -0.3659 -0.3467  0.1269
 3682TIP3    H132605   6.388   0.076   7.032 -0.0867 -0.1350 -0.6007
 3682TIP3    H232606   6.370   0.227   7.028 -0.6013 -0.1923 -0.4444
 3683TIP3   OH232607   2.937   6.853   1.437  0.7563 -0.6048  0.1114
 3683TIP3    H132608   2.868   6.806   1.390  0.8150 -1.0666  0.4787
 3683TIP3    H232609   3.007   6.788   1.448  0.4523 -0.7259  1.4783
 3684TIP3   OH232610   4.600   6.677   0.069  0.4367  0.1967 -0.1858
 3684TIP3    H132611   4.566   6.601   0.115  1.5990 -0.1886  0.0515
 3684TIP3    H232612   4.688   6.690   0.104  0.2905  1.6161 -0.2598
 3685TIP3   OH232613   2.950   3.513   2.036  0.2564  0.3626  0.3520
 3685TIP3    H132614   2.906   3.429   2.048 -0.4946  0.3912 -1.6801
 3685TIP3    H232615   3.042   3.489   2.019  0.0152 -0.0834 -0.3952
 3686TIP3   OH232616   2.393   1.875   1.224  0.0021  0.1546 -0.6407
 3686TIP3    H132617   2.408   1.959   1.179 -1.9220  0.3469 -1.0023
 3686TIP3    H232618   2.470   1.823   1.201  1.3540  1.8590 -0.2544
 3687TIP3   OH232619   2.259   3.844   0.670 -0.0301 -0.4310 -0.3804
 3687TIP3    H132620   2.313   3.766   0.657  0.4385 -0.0616 -0.6972
 3687TIP3    H232621   2.314   3.903   0.722 -0.0911 -0.0197 -0.7747
 3688TIP3   OH232622   3.621   0.140   6.939  0.3926 -0.0762 -0.1159
 3688TIP3    H132623   3.624   0.234   6.956 -0.0287  0.0287 -0.5935
 3688TIP3    H232624   3.695   0.124   6.880 -1.3579  0.5458 -2.6822
 3689TIP3   OH232625   3.684   4.791   2.228 -0.0219  0.2914 -0.4476
 3689TIP3    H132626   3.740   4.719   2.197 -1.5470 -0.4427 -1.6625
 3689TIP3    H232627   3.662   4.839   2.148 -0.1992  1.2511  0.1662
 3690TIP3   OH232628   2.921   4.733   2.125 -0.5465  0.3572 -0.8081
 3690TIP3    H132629   2.853   4.665   2.116 -1.3672  1.3246 -2.1779
 3690TIP3    H232630   2.969   4.707   2.203 -0.2405 -2.3264 -1.7863
 3691TIP3   OH232631   2.278   1.332   8.154  0.4308 -0.2167  0.0031
 3691TIP3    H132632   2.342   1.284   8.207  0.0132  0.2700  0.9726
 3691TIP3    H232633   2.196   1.285   8.166  0.2270  0.1852  0.1859
 3692TIP3   OH232634   5.041   6.517   1.493  0.0682  0.4643  0.1830
 3692TIP3    H132635   5.025   6.584   1.426  0.9438 -1.1409 -1.7253
 3692TIP3    H232636   5.121   6.545   1.537 -0.1453  1.1930  0.1195
 3693TIP3   OH232637   6.462   2.287   0.883 -0.1288 -0.0626  0.1573
 3693TIP3    H132638   6.463   2.340   0.962  0.5906  1.5036 -0.8580
 3693TIP3    H232639   6.369   2.274   0.864 -0.3346 -1.3735  1.7918
 3694TIP3   OH232640   5.788   0.665   8.427  0.7313 -0.1306 -0.5738
 3694TIP3    H132641   5.794   0.572   8.447 -1.2653  0.2567  2.5850
 3694TIP3    H232642   5.704   0.675   8.381  1.1047  0.0657 -1.2160
 3695TIP3   OH232643   5.518   4.625   2.443  0.2246  0.2936  0.4038
 3695TIP3    H132644   5.527   4.687   2.515 -0.7484  0.1206  0.6914
 3695TIP3    H232645   5.446   4.568   2.470  1.4045 -1.2802  0.3671
 3696TIP3   OH232646   5.322   5.891   0.673 -0.1695 -0.1823 -0.4967
 3696TIP3    H132647   5.412   5.873   0.702 -1.0075 -1.5837  1.4600
 3696TIP3    H232648   5.333   5.930   0.586  2.3276 -0.1565 -0.2686
 3697TIP3   OH232649   3.439   2.614   8.213 -0.4346 -0.0454  0.0144
 3697TIP3    H132650   3.458   2.598   8.121 -0.9446  0.1377 -0.1303
 3697TIP3    H232651   3.501   2.560   8.261  2.6454  2.8796 -0.3658
 3698TIP3   OH232652   5.854   3.021   7.513  0.2141  0.4884  0.1753
 3698TIP3    H132653   5.835   2.945   7.567  1.5036  0.5704  0.7635
 3698TIP3    H232654   5.834   3.096   7.569 -1.4053  0.6189 -0.5240
 3699TIP3   OH232655   3.478   0.153   1.340  0.4458  0.3505  0.1900
 3699TIP3    H132656   3.400   0.205   1.321 -0.3415 -0.3764  1.2550
 3699TIP3    H232657   3.551   0.209   1.318 -0.3834  1.1693 -0.5470
 3700TIP3   OH232658   1.545   5.353   2.987 -0.3526 -0.3493  0.0808
 3700TIP3    H132659   1.500   5.288   3.040 -0.5664  2.0792  3.1992
 3700TIP3    H232660   1.635   5.353   3.021  0.1572 -0.3589 -1.2347
 3701TIP3   OH232661   2.804   5.826   1.823 -0.1951 -0.7878 -0.1504
 3701TIP3    H132662   2.786   5.837   1.729  1.3006 -1.6084 -0.5703
 3701TIP3    H232663   2.814   5.915   1.856  1.1201 -0.5245 -1.1868
 3702TIP3   OH232664   3.612   4.484   8.104  0.0238  0.0482  0.0732
 3702TIP3    H132665   3.559   4.427   8.049 -1.0724  0.0051  1.1272
 3702TIP3    H232666   3.680   4.426   8.140 -0.6565 -0.4410  0.5835
 3703TIP3   OH232667   0.655   5.337   8.271  0.4441 -0.4664 -0.4074
 3703TIP3    H132668   0.642   5.407   8.207  2.3276 -2.2202 -2.9074
 3703TIP3    H232669   0.750   5.333   8.283  0.2106 -0.9553  1.7006
 3704TIP3   OH232670   2.840   2.811   0.417  0.0925 -0.4384 -0.5113
 3704TIP3    H132671   2.903   2.859   0.363  1.2982  0.6543  1.7286
 3704TIP3    H232672   2.891   2.780   0.491 -2.2450  2.1901  2.4873
 3705TIP3   OH232673   0.363   4.332   7.057 -0.1752  0.4741  0.2401
 3705TIP3    H132674   0.436   4.392   7.044 -0.6887  0.6117 -2.8127
 3705TIP3    H232675   0.379   4.260   6.996 -2.2575  0.2170 -0.0747
 3706TIP3   OH232676   1.390   3.782   6.689  0.0824 -0.1357 -0.1352
 3706TIP3    H132677   1.365   3.772   6.781  0.9188  1.7584  0.3338
 3706TIP3    H232678   1.351   3.706   6.646  1.9286 -2.6572  2.2220
 3707TIP3   OH232679   5.629   4.267   8.336  0.0605  0.0600  0.3088
 3707TIP3    H132680   5.641   4.339   8.274 -1.7823 -0.9106 -1.2694
 3707TIP3    H232681   5.698   4.281   8.401  2.3477  0.9397 -2.1124
 3708TIP3   OH232682   3.760   0.785   1.556  0.4156  0.1192 -0.1752
 3708TIP3    H132683   3.778   0.845   1.484  0.3425  0.7959  0.3577
 3708TIP3    H232684   3.689   0.826   1.605 -0.6018 -1.0883 -0.5820
 3709TIP3   OH232685   6.894   5.665   7.479 -0.1296  0.1663 -0.0204
 3709TIP3    H132686   6.981   5.637   7.452  0.3539  1.4361  0.1342
 3709TIP3    H232687   6.857   5.706   7.400  0.3916  1.8147  0.5395
 3710TIP3   OH232688   0.860   6.146   2.707 -0.0648  0.3734 -0.4475
 3710TIP3    H132689   0.944   6.154   2.662 -0.1703  0.1184 -0.6922
 3710TIP3    H232690   0.864   6.211   2.777  1.5492 -1.6426  1.4525
 3711TIP3   OH232691   2.763   0.007   7.170 -0.1097 -0.2888 -0.3020
 3711TIP3    H132692   2.711   0.076   7.210  1.9013  1.2912 -0.2944
 3711TIP3    H232693   2.732   0.003   7.079 -4.8645 -4.0471  1.0497
 3712TIP3   OH232694   1.525   2.840   1.783 -0.3378 -0.5652  0.2764
 3712TIP3    H132695   1.496   2.910   1.842  1.6432 -2.2419  3.5209
 3712TIP3    H232696   1.456   2.774   1.787 -0.3329 -0.5556  0.5333
 3713TIP3   OH232697   0.486   2.091   1.316 -0.1904  0.3339  0.2529
 3713TIP3    H132698   0.460   2.041   1.393 -1.2499  0.4333 -0.0267
 3713TIP3    H232699   0.581   2.078   1.309 -0.1437  0.0394  1.3597
 3714TIP3   OH232700   3.238   2.021   0.142 -0.1706  0.2767  0.5714
 3714TIP3    H132701   3.215   2.034   0.050 -0.2535 -0.8162  0.4190
 3714TIP3    H232702   3.171   2.070   0.190 -1.3816 -0.7855  0.0679
 3715TIP3   OH232703   3.516   4.119   1.767  0.0705 -1.4839  0.4903
 3715TIP3    H132704   3.578   4.048   1.779  0.3189 -1.1164  1.4462
 3715TIP3    H232705   3.536   4.182   1.836 -1.1216 -1.1855  0.6021
 3716TIP3   OH232706   2.938   1.349   7.907 -0.0587 -0.0960  0.0739
 3716TIP3    H132707   2.931   1.262   7.868 -1.6108 -0.2309  0.5906
 3716TIP3    H232708   2.876   1.403   7.859  3.5549  1.8601 -2.8918
 3717TIP3   OH232709   3.253   6.494   0.258 -0.0079 -0.5961 -0.0642
 3717TIP3    H132710   3.277   6.564   0.198  0.7119  2.2056  3.2386
 3717TIP3    H232711   3.158   6.486   0.248 -0.1477  1.0420 -0.3351
 3718TIP3   OH232712   0.371   3.959   0.086 -0.1059  0.3638 -0.1468
 3718TIP3    H132713   0.320   4.040   0.081  1.1699  1.2264  0.2849
 3718TIP3    H232714   0.450   3.977   0.035  0.9545  0.0126  1.2860
 3719TIP3   OH232715   4.750   4.175   7.199  0.8233  0.1619  0.0070
 3719TIP3    H132716   4.686   4.170   7.127  0.4207  1.1054  0.2727
 3719TIP3    H232717   4.736   4.095   7.249  1.4066 -0.7226 -1.1931
 3720TIP3   OH232718   5.652   4.854   0.746  0.6026 -0.0561  0.6033
 3720TIP3    H132719   5.679   4.866   0.656  0.0226  0.6745  0.5113
 3720TIP3    H232720   5.724   4.806   0.788  1.3727  0.5935  0.0386
 3721TIP3   OH232721   2.048   3.971   0.555 -0.4423  0.1656  0.0551
 3721TIP3    H132722   2.012   3.888   0.525 -0.8286  0.7101 -1.0508
 3721TIP3    H232723   2.120   3.947   0.613 -2.6801 -0.9942  2.5703
 3722TIP3   OH232724   6.437   5.260   7.726  0.2159  0.3761  0.2314
 3722TIP3    H132725   6.515   5.307   7.698  0.1173  0.3486 -0.0871
 3722TIP3    H232726   6.432   5.184   7.669 -0.2257  0.5548  0.0226
 3723TIP3   OH232727   4.857   1.816   0.051  0.3105 -0.0982  0.6461
 3723TIP3    H132728   4.888   1.765  -0.023  1.3927  0.4371  0.7106
 3723TIP3    H232729   4.930   1.874   0.072 -1.2211  2.2335 -0.0957
 3724TIP3   OH232730   4.142   5.766   8.363 -0.5160 -0.1925  0.3266
 3724TIP3    H132731   4.218   5.747   8.309 -0.0129  0.0734  0.9341
 3724TIP3    H232732   4.114   5.681   8.396 -1.0515 -0.4067 -0.6266
 3725TIP3   OH232733   4.486   0.056   0.043 -0.0640 -0.0014  0.1116
 3725TIP3    H132734   4.502  -0.028   0.086  1.0440  0.2242  0.1869
 3725TIP3    H232735   4.569   0.075  -0.002 -0.5335  0.7218 -0.4652
 3726TIP3   OH232736   4.583   0.558   2.032  0.4324  0.4070  0.5718
 3726TIP3    H132737   4.594   0.491   2.100  3.1030 -0.1049 -0.2236
 3726TIP3    H232738   4.502   0.603   2.055 -0.2271 -1.5744  2.4650
 3727TIP3   OH232739   0.888   3.720   7.212  0.4220  0.0710  0.2822
 3727TIP3    H132740   0.937   3.692   7.135 -0.1362  1.0200 -0.4465
 3727TIP3    H232741   0.945   3.785   7.254  0.4199  0.0919  0.2532
 3728TIP3   OH232742   1.854   0.952   0.532  0.2903  0.5452  0.2717
 3728TIP3    H132743   1.904   0.981   0.455 -0.1914  1.7553  0.3931
 3728TIP3    H232744   1.800   1.027   0.555 -1.7620 -0.7714  0.0171
 3729TIP3   OH232745   4.943   2.712   8.473 -0.3711  0.4361  0.3890
 3729TIP3    H132746   5.037   2.721   8.457 -0.6411  0.5603 -1.2551
 3729TIP3    H232747   4.916   2.638   8.419 -1.6413  1.9208 -1.1171
 3730TIP3   OH232748   6.281   4.212   0.107  0.1285 -0.1284  0.3135
 3730TIP3    H132749   6.330   4.257   0.176  1.0325  0.8776 -0.9379
 3730TIP3    H232750   6.325   4.127   0.099 -0.9666 -0.9132  2.0001
 3731TIP3   OH232751   6.258   0.692   0.054 -0.2620 -0.1081 -0.1162
 3731TIP3    H132752   6.315   0.637   0.108  1.0797 -0.5469 -1.8533
 3731TIP3    H232753   6.177   0.642   0.044  0.7785 -1.6513 -1.3205
 3732TIP3   OH232754   1.237   5.962   7.359  0.2146 -0.1219  0.0955
 3732TIP3    H132755   1.191   5.904   7.299 -0.5305 -1.3972  1.7990
 3732TIP3    H232756   1.307   6.002   7.307 -1.0699 -0.3129 -1.8454
 3733TIP3   OH232757   6.004   2.011   1.894 -0.3987 -0.2703  0.5176
 3733TIP3    H132758   6.006   2.085   1.955  0.2424 -0.9420  1.3382
 3733TIP3    H232759   6.070   2.033   1.828  1.1537 -0.9266  1.7840
 3734TIP3   OH232760   6.765   1.040   0.760 -0.7444  0.1760 -0.4544
 3734TIP3    H132761   6.753   1.134   0.770  2.8346  0.4923  3.4546
 3734TIP3    H232762   6.695   1.001   0.812 -1.0577  0.7372 -0.4486
 3735TIP3   OH232763   1.914   6.248   8.277  0.1988 -0.1888  0.0778
 3735TIP3    H132764   1.928   6.186   8.205  0.6397  0.5185 -0.4537
 3735TIP3    H232765   1.963   6.326   8.252 -0.6496  0.5181  0.5663
 3736TIP3   OH232766   1.195   6.455   0.422 -0.7112  0.4228  0.4614
 3736TIP3    H132767   1.260   6.487   0.485  0.0298 -0.1169 -0.0052
 3736TIP3    H232768   1.194   6.360   0.435  0.3391  0.1505 -1.1201
 3737TIP3   OH232769   1.965   3.729   0.512  0.0462  1.1911  0.3462
 3737TIP3    H132770   1.948   3.655   0.453 -0.6725  2.2086 -0.7578
 3737TIP3    H232771   1.956   3.691   0.600 -0.0997 -0.0795 -0.1861
 3738TIP3   OH232772   4.424   5.546   1.670 -0.3817 -0.4527 -0.4379
 3738TIP3    H132773   4.461   5.461   1.692  0.2042 -0.1945 -0.4042
 3738TIP3    H232774   4.332   5.540   1.698 -0.0781 -0.7094  0.5454
 3739TIP3   OH232775   0.040   6.488   8.337 -0.1393 -0.3289  0.5163
 3739TIP3    H132776  -0.012   6.563   8.368  0.7528  0.0615  1.0975
 3739TIP3    H232777   0.059   6.438   8.416  2.2471  0.7300  0.6949
 3740TIP3   OH232778   1.396   3.125   7.813 -0.2250  0.2096 -0.2524
 3740TIP3    H132779   1.341   3.062   7.767  1.1804 -1.6527  0.4663
 3740TIP3    H232780   1.340   3.160   7.882 -1.7678  1.6463 -2.1272
 3741TIP3   OH232781   1.236   6.088   0.228  0.3107 -0.1593  0.4830
 3741TIP3    H132782   1.169   6.021   0.246 -0.6817  0.4094 -0.9304
 3741TIP3    H232783   1.248   6.085   0.133  1.2725  0.7344  0.5584
 3742TIP3   OH232784   2.202   4.164   0.063  0.2837 -0.1414 -0.1809
 3742TIP3    H132785   2.225   4.071   0.062 -0.5150 -0.3405 -0.0793
 3742TIP3    H232786   2.261   4.203   0.128  3.3479  0.1555 -2.8554
 3743TIP3   OH232787   3.302   2.119   7.856 -0.4497 -0.3710 -0.0357
 3743TIP3    H132788   3.367   2.050   7.849  0.5890  0.6274 -0.4007
 3743TIP3    H232789   3.321   2.179   7.784 -2.4520 -0.5954 -0.8306
 3744TIP3   OH232790   1.719   2.032   0.173 -0.0284  0.2901 -0.3548
 3744TIP3    H132791   1.661   2.022   0.098 -0.6128 -1.7889  0.2966
 3744TIP3    H232792   1.703   2.120   0.206 -1.9424  0.1773 -0.9027
 3745TIP3   OH232793   2.572   2.391   0.122  0.0598 -0.1359  0.2564
 3745TIP3    H132794   2.634   2.430   0.184 -0.6202 -1.7534  2.0434
 3745TIP3    H232795   2.621   2.320   0.080 -0.3199 -0.8602  1.0338
 3746TIP3   OH232796   5.785   2.815   0.235  1.1222 -0.1326  0.4344
 3746TIP3    H132797   5.856   2.815   0.171  3.8007  0.7018  3.2309
 3746TIP3    H232798   5.790   2.729   0.276 -2.1369 -1.6352 -1.8372
 3747TIP3   OH232799   4.601   4.190   2.886 -0.4633 -0.2954 -0.4329
 3747TIP3    H132800   4.646   4.229   2.812 -1.1809 -1.7204 -1.6745
 3747TIP3    H232801   4.509   4.187   2.859 -0.8539 -0.2112  0.8162
 3748TIP3   OH232802   5.149   1.001   7.637 -0.6681  0.0219 -0.5389
 3748TIP3    H132803   5.130   0.986   7.545  0.4221  0.9087 -0.9366
 3748TIP3    H232804   5.240   0.973   7.648 -1.2072 -1.4087  0.6126
 3749TIP3   OH232805   5.763   3.599   8.207  0.5203  0.1365 -0.1518
 3749TIP3    H132806   5.814   3.521   8.183  1.5592  1.4171 -2.3523
 3749TIP3    H232807   5.673   3.575   8.187  0.5466 -1.1680  1.1068
 3750TIP3   OH232808   1.097   0.475   0.844 -0.3985 -0.1004 -0.3477
 3750TIP3    H132809   1.185   0.493   0.878 -0.4100  0.8946 -0.7908
 3750TIP3    H232810   1.046   0.450   0.921  0.3476 -1.0336 -0.1404
 3751TIP3   OH232811   6.673   6.606   0.563 -0.1544 -0.7663  0.5113
 3751TIP3    H132812   6.684   6.511   0.567  1.1678 -0.6749 -0.2811
 3751TIP3    H232813   6.713   6.638   0.643  1.0160 -0.7832 -0.0411
 3752TIP3   OH232814   2.489   2.696   2.543  0.1822 -0.1207 -0.1636
 3752TIP3    H132815   2.534   2.725   2.621  1.1502 -0.0799 -0.7241
 3752TIP3    H232816   2.537   2.735   2.470 -1.3278  0.7194 -0.7641
 3753TIP3   OH232817   5.002   6.207   1.227  0.2421 -1.0646 -0.1139
 3753TIP3    H132818   5.061   6.180   1.157  0.0986 -1.0949 -0.2231
 3753TIP3    H232819   4.943   6.132   1.239 -0.5998 -0.5425 -0.8929
 3754TIP3   OH232820   2.586   2.080   0.221  0.7720 -0.3287  0.0802
 3754TIP3    H132821   2.587   2.010   0.287  0.9262 -0.7151 -0.3328
 3754TIP3    H232822   2.505   2.128   0.238  0.1799 -1.1973 -0.2548
 3755TIP3   OH232823   5.331   6.331   8.441  0.1516  0.4391  0.6637
 3755TIP3    H132824   5.308   6.418   8.473  0.6060  0.3274  1.3145
 3755TIP3    H232825   5.259   6.274   8.471  0.8217  0.2439  1.9498
 3756TIP3   OH232826   2.875   5.350   0.172  0.3100  0.3611 -0.0210
 3756TIP3    H132827   2.952   5.331   0.226  1.4382 -0.1891 -1.7464
 3756TIP3    H232828   2.893   5.436   0.134 -0.7316  0.9952  0.8722
 3757TIP3   OH232829   2.070   1.133   8.182 -0.0351 -0.1763  0.1682
 3757TIP3    H132830   1.978   1.150   8.200 -0.4958 -1.5057 -0.7748
 3757TIP3    H232831   2.070   1.092   8.095  1.4850  0.1837 -0.0287
 3758TIP3   OH232832   3.614   4.886   7.814 -0.6547 -0.1229 -0.2996
 3758TIP3    H132833   3.625   4.794   7.838 -2.8240 -0.0966  1.0437
 3758TIP3    H232834   3.650   4.935   7.888 -0.4222  0.0869 -0.5507
 3759TIP3   OH232835   4.757   4.815   0.710  0.6647  0.4956  0.1621
 3759TIP3    H132836   4.725   4.820   0.800 -1.3255  0.0394 -0.4700
 3759TIP3    H232837   4.723   4.732   0.677  2.4941  0.0120 -0.6280
 3760TIP3   OH232838   4.777   3.582   2.351 -0.0085 -0.3345 -0.5408
 3760TIP3    H132839   4.709   3.584   2.418  0.7461  3.5795  0.3603
 3760TIP3    H232840   4.729   3.591   2.268 -0.7609  3.0548  0.1157
 3761TIP3   OH232841   0.854   3.108   0.278  0.7828 -0.2754  0.1622
 3761TIP3    H132842   0.861   3.047   0.351  1.4183 -0.2618  0.1177
 3761TIP3    H232843   0.918   3.177   0.298  0.9184 -0.2403 -0.3729
 3762TIP3   OH232844   1.836   4.384   6.971 -0.0241 -0.5914  0.0829
 3762TIP3    H132845   1.741   4.385   6.974 -0.1168 -0.2351 -1.6742
 3762TIP3    H232846   1.859   4.302   6.927  0.4861 -0.7266  0.5886
 3763TIP3   OH232847   2.747   4.448   8.530 -0.2302  0.0081  0.3199
 3763TIP3    H132848   2.841   4.466   8.533 -0.1590 -0.4882  1.5199
 3763TIP3    H232849   2.734   4.406   8.445  0.3638  1.4191 -0.5000
 3764TIP3   OH232850   4.351   2.846   0.512  0.5204  0.2579  0.5212
 3764TIP3    H132851   4.405   2.815   0.439 -0.1537 -1.1446  0.5819
 3764TIP3    H232852   4.408   2.838   0.589  1.1961  1.6341  0.1898
 3765TIP3   OH232853   6.242   4.186   8.433 -0.2234  0.2088 -0.1744
 3765TIP3    H132854   6.260   4.219   8.521 -0.9646  1.2289 -0.3860
 3765TIP3    H232855   6.271   4.095   8.435 -1.6277 -0.2523  1.5825
 3766TIP3   OH232856   0.044   1.787   1.571 -0.0122 -0.1553  0.3715
 3766TIP3    H132857  -0.024   1.819   1.512  1.7734  1.5385 -0.9254
 3766TIP3    H232858   0.125   1.827   1.537  1.4756 -1.2492  2.4342
 3767TIP3   OH232859   0.082   6.394   0.009  0.2287 -0.1200  0.3417
 3767TIP3    H132860   0.160   6.339  -0.001  0.0864 -0.5957  1.7297
 3767TIP3    H232861   0.045   6.369   0.093 -1.5277 -0.0202 -0.3543
 3768TIP3   OH232862   4.760   4.186   0.302  0.2249 -0.0393 -0.1865
 3768TIP3    H132863   4.747   4.227   0.216 -0.8095 -1.3306 -0.6605
 3768TIP3    H232864   4.856   4.180   0.310  0.3684  1.0797 -0.7531
 3769TIP3   OH232865   3.056   0.431   7.272 -0.2587 -0.3072 -0.7120
 3769TIP3    H132866   3.092   0.387   7.349 -0.7521 -0.4186 -0.5425
 3769TIP3    H232867   3.013   0.362   7.222  0.3065 -0.2858 -1.2357
 3770TIP3   OH232868   4.108   0.194   1.354  0.1899  0.0942  0.0225
 3770TIP3    H132869   4.170   0.122   1.362 -0.1296 -0.1147  0.7232
 3770TIP3    H232870   4.148   0.266   1.402 -0.0567 -0.0127  0.3970
 3771TIP3   OH232871   5.330   3.706   7.410  0.2904  0.1282 -0.1821
 3771TIP3    H132872   5.256   3.649   7.391  0.9647 -2.1851  3.3518
 3771TIP3    H232873   5.357   3.739   7.324 -2.8363 -1.3696 -1.9098
 3772TIP3   OH232874   4.098   6.728   0.779  0.0808 -0.0230  0.0234
 3772TIP3    H132875   4.043   6.751   0.854  0.6655  0.8168  0.2134
 3772TIP3    H232876   4.044   6.751   0.702 -1.0465 -2.1068  0.1131
 3773TIP3   OH232877   3.843   4.586   0.507  0.2053 -0.3103 -0.3355
 3773TIP3    H132878   3.884   4.642   0.573 -0.5977 -0.5114  0.3616
 3773TIP3    H232879   3.916   4.545   0.460  0.8080 -0.6059  0.8164
 3774TIP3   OH232880   4.157   3.933   0.134  0.1691  0.3042  0.3236
 3774TIP3    H132881   4.172   3.902   0.044 -2.5069 -0.0346 -0.0761
 3774TIP3    H232882   4.079   3.885   0.163  0.3713  1.1876  2.4636
 3775TIP3   OH232883   0.384   5.700   1.476  0.1812 -0.2367  0.2938
 3775TIP3    H132884   0.452   5.710   1.543 -0.1682 -1.4738  0.8490
 3775TIP3    H232885   0.413   5.625   1.424 -0.2486 -0.1239 -0.1134
 3776TIP3   OH232886   0.867   1.897   0.075  0.2091  0.7988 -0.0015
 3776TIP3    H132887   0.772   1.896   0.092  0.1738  2.0013 -0.0365
 3776TIP3    H232888   0.897   1.978   0.116  1.3942 -0.0416  0.8332
 3777TIP3   OH232889   2.821   3.261   1.990  0.3904 -0.1149  0.3919
 3777TIP3    H132890   2.728   3.237   1.983  0.9216 -2.3250  0.0059
 3777TIP3    H232891   2.846   3.236   2.079  0.7111  0.0965  0.3619
 3778TIP3   OH232892   2.967   1.856   2.183  0.3426 -0.4027  0.0958
 3778TIP3    H132893   3.061   1.839   2.182  0.4236 -0.0303  0.8223
 3778TIP3    H232894   2.930   1.787   2.127  0.9294 -1.2726  0.7487
 3779TIP3   OH232895   4.305   2.305   7.975 -0.4357 -0.4615 -0.2798
 3779TIP3    H132896   4.375   2.259   7.929  1.2987  0.0571  1.7047
 3779TIP3    H232897   4.277   2.245   8.044 -1.4285 -0.3381 -0.5527
 3780TIP3   OH232898   3.949   3.752   8.502  0.1513  0.2468  0.2557
 3780TIP3    H132899   3.958   3.704   8.420 -1.0870  1.3550 -0.5809
 3780TIP3    H232900   3.894   3.697   8.557  0.4534 -0.2079  0.1059
 3781TIP3   OH232901   5.153   0.651   2.405 -0.0376 -0.0328  0.7798
 3781TIP3    H132902   5.240   0.656   2.366 -0.4017  0.2964 -0.0101
 3781TIP3    H232903   5.156   0.713   2.478  0.6661 -0.6956  1.3344
 3782TIP3   OH232904   0.004   3.059   0.212 -0.4678 -0.0134 -0.2734
 3782TIP3    H132905   0.018   2.975   0.255 -0.2964  0.1288 -0.0533
 3782TIP3    H232906  -0.020   3.119   0.282  1.3734  0.6002 -0.1108
 3783TIP3   OH232907   3.962   5.474   7.674  0.1772 -0.2332  0.0869
 3783TIP3    H132908   3.935   5.526   7.750 -2.6139 -0.3607 -0.6971
 3783TIP3    H232909   4.003   5.396   7.712 -0.5752 -0.0028  1.4630
 3784TIP3   OH232910   3.044   6.547   0.613  0.0346  0.2004  0.3689
 3784TIP3    H132911   3.001   6.478   0.563 -2.4616 -0.3251  3.0020
 3784TIP3    H232912   3.021   6.628   0.566 -1.8471 -0.3051  0.3410
 3785TIP3   OH232913   3.895   0.061   1.484  0.3644 -0.4571 -0.6424
 3785TIP3    H132914   3.982   0.096   1.465  0.0622  0.6167 -0.1329
 3785TIP3    H232915   3.866   0.022   1.402  0.7659  0.4068 -1.2046
 3786TIP3   OH232916   3.812   2.575   0.867 -0.3036 -0.1474 -0.3795
 3786TIP3    H132917   3.883   2.512   0.882  0.1104  0.4348  0.1874
 3786TIP3    H232918   3.794   2.569   0.773  1.6999  0.9315 -0.8849
 3787TIP3   OH232919   5.767   3.893   0.307 -0.4019 -0.0680  0.0861
 3787TIP3    H132920   5.780   3.976   0.354  0.5459  0.3549 -0.8759
 3787TIP3    H232921   5.697   3.912   0.245  0.1919  0.1922 -0.5149
 3788TIP3   OH232922   3.322   5.286   0.847  0.1920  0.1217 -0.3348
 3788TIP3    H132923   3.284   5.199   0.840  1.9216 -0.6879 -0.3951
 3788TIP3    H232924   3.312   5.310   0.939  1.0230 -0.8122  0.0138
 3789TIP3   OH232925   4.670   4.146   0.760  0.1065  0.5932 -0.2560
 3789TIP3    H132926   4.752   4.195   0.765  0.8727 -0.7577  1.4507
 3789TIP3    H232927   4.642   4.137   0.851 -1.2136 -0.1534 -0.7085
 3790TIP3   OH232928   4.832   6.036   6.748  0.4427 -0.5969  0.3478
 3790TIP3    H132929   4.765   6.071   6.689  0.7922 -1.6134 -0.6802
 3790TIP3    H232930   4.790   5.962   6.791 -0.4075  1.1685  2.7724
 3791TIP3   OH232931   4.262   4.635   0.313  0.2185 -0.7032  0.4772
 3791TIP3    H132932   4.289   4.612   0.401  0.7092  0.9430  0.7899
 3791TIP3    H232933   4.197   4.569   0.290 -0.5575 -0.6846  2.4041
 3792TIP3   OH232934   4.212   1.469   1.314  0.0517  0.3410 -0.3390
 3792TIP3    H132935   4.266   1.427   1.381 -0.9168 -1.5491 -0.6714
 3792TIP3    H232936   4.173   1.544   1.359 -0.5597 -0.8639  1.2421
 3793TIP3   OH232937   0.113   0.436   7.545  0.7700  0.3637 -0.5361
 3793TIP3    H132938   0.128   0.369   7.612  1.1658  0.2227 -0.7670
 3793TIP3    H232939   0.108   0.388   7.463  0.2536  0.5354 -0.6130
 3794TIP3   OH232940   4.981   0.976   0.253  0.4771 -0.7999  0.1773
 3794TIP3    H132941   4.984   0.881   0.259  1.1795 -0.7186  1.8256
 3794TIP3    H232942   4.930   1.002   0.330  0.5799  0.1745 -0.0738
 3795TIP3   OH232943   1.176   3.221   0.599 -0.0692 -0.1154  0.0627
 3795TIP3    H132944   1.093   3.177   0.620 -1.3496  2.0275 -0.1872
 3795TIP3    H232945   1.163   3.311   0.629  2.8295 -0.0916  1.5417
 3796TIP3   OH232946   6.071   0.155   8.087  0.2829  0.0850 -0.1533
 3796TIP3    H132947   6.023   0.234   8.063  1.2226  1.0094  0.8783
 3796TIP3    H232948   6.120   0.180   8.165  1.4301 -1.2000 -0.4265
 3797TIP3   OH232949   2.304   4.806   8.023 -0.5334 -0.0747  0.3645
 3797TIP3    H132950   2.245   4.861   7.972 -1.8342 -1.5737  0.1545
 3797TIP3    H232951   2.246   4.760   8.084  0.7267  0.0708  1.7082
 3798TIP3   OH232952   6.801   2.247   0.822 -0.1367  0.1756  0.0986
 3798TIP3    H132953   6.716   2.275   0.787  0.1037  0.5058 -0.2417
 3798TIP3    H232954   6.864   2.280   0.758  0.1309 -1.7095 -0.6767
 3799TIP3   OH232955   2.506   6.213   2.023  0.1709  0.3129  0.0880
 3799TIP3    H132956   2.469   6.190   2.108 -3.1350  1.7095 -0.8221
 3799TIP3    H232957   2.527   6.306   2.030 -2.6412  1.1535 -1.2888
 3800TIP3   OH232958   0.824   6.143   3.149  0.0163  0.2438 -0.2526
 3800TIP3    H132959   0.796   6.078   3.084 -0.4660 -1.1673  1.2874
 3800TIP3    H232960   0.913   6.118   3.171 -0.3553 -0.2707  0.7418
 3801TIP3   OH232961   0.276   2.276   1.603  0.0073 -0.1084  0.1478
 3801TIP3    H132962   0.283   2.199   1.545 -1.8828  0.0734 -0.3919
 3801TIP3    H232963   0.294   2.350   1.546  1.3994 -0.1005  0.5712
 3802TIP3   OH232964   4.707   1.020   7.475 -0.1209  0.0815  0.1524
 3802TIP3    H132965   4.705   0.974   7.391  0.6060  0.4912 -0.0959
 3802TIP3    H232966   4.707   1.113   7.452  0.9653  0.2037  0.5706
 3803TIP3   OH232967   2.341   1.819   0.924 -0.0184 -0.6820  0.0793
 3803TIP3    H132968   2.303   1.817   1.012 -0.3387  0.4612 -0.0194
 3803TIP3    H232969   2.266   1.820   0.865  0.1588  0.7702 -0.1397
 3804TIP3   OH232970   2.663   3.024   8.098  0.5117  0.6537 -0.4470
 3804TIP3    H132971   2.676   2.930   8.110  0.4877  0.5950 -0.8887
 3804TIP3    H232972   2.664   3.037   8.003  0.0003  1.0230 -0.4083
 3805TIP3   OH232973   5.577   2.601   2.127 -1.0541  0.1637  0.1682
 3805TIP3    H132974   5.534   2.641   2.051 -1.3213 -0.5854 -0.0870
 3805TIP3    H232975   5.510   2.603   2.196 -0.9235  0.5400  0.2862
 3806TIP3   OH232976   6.073   1.438   2.249  0.4904  0.1193  0.3378
 3806TIP3    H132977   6.020   1.518   2.249 -1.9373 -1.3565  1.2319
 3806TIP3    H232978   6.129   1.446   2.326 -0.0231  0.7697  0.6548
 3807TIP3   OH232979   6.901   3.632   0.583 -0.4631 -0.4177  0.5154
 3807TIP3    H132980   6.961   3.600   0.516 -0.4752 -0.7797  0.6746
 3807TIP3    H232981   6.853   3.554   0.611 -0.5764 -0.2380  0.8214
 3808TIP3   OH232982   5.801   0.657   1.419  0.0921 -0.3933 -0.6901
 3808TIP3    H132983   5.850   0.723   1.468 -0.1722  0.1878 -1.1902
 3808TIP3    H232984   5.855   0.578   1.424  0.4991 -0.0928 -0.2330
 3809TIP3   OH232985   6.237   5.833   0.969 -0.1685  0.1033  1.0274
 3809TIP3    H132986   6.239   5.920   1.010  0.4357 -0.0437  1.3263
 3809TIP3    H232987   6.321   5.828   0.922  0.2023 -0.6728  1.7606
 3810TIP3   OH232988   2.983   2.846   0.642 -0.1486  0.4225 -0.0591
 3810TIP3    H132989   3.069   2.810   0.662 -0.3298 -0.1671 -0.3126
 3810TIP3    H232990   2.975   2.923   0.698 -0.1216 -0.4434  1.1649
 3811TIP3   OH232991   0.975   0.702   1.874 -0.0234  0.8628 -0.0590
 3811TIP3    H132992   1.051   0.759   1.885  0.5645  0.0214  0.3685
 3811TIP3    H232993   1.011   0.620   1.841 -0.3525 -0.4882  2.6984
 3812TIP3   OH232994   6.184   6.512   3.095 -0.6841  0.7269  0.4910
 3812TIP3    H132995   6.260   6.497   3.151  1.5006  0.5130 -2.3093
 3812TIP3    H232996   6.109   6.512   3.155  1.2556 -1.3011  3.1212
 3813TIP3   OH232997   6.642   4.259   1.802  0.4948  0.0903  0.5118
 3813TIP3    H132998   6.710   4.245   1.735 -1.1547  1.1202 -1.4944
 3813TIP3    H232999   6.690   4.264   1.884  2.9649  1.7621 -0.9126
 3814TIP3   OH233000   5.897   0.943   2.384  0.7625  0.2381  0.5284
 3814TIP3    H133001   5.982   0.907   2.357  0.3358  0.4228 -1.2288
 3814TIP3    H233002   5.905   1.037   2.368  1.0236  0.6443  2.7234
 3815TIP3   OH233003   4.789   1.214   8.338 -0.0391  0.3961  0.4219
 3815TIP3    H133004   4.853   1.268   8.384  0.3395 -0.0574  0.4369
 3815TIP3    H233005   4.840   1.143   8.301 -0.7021 -0.6617  1.4716
 3816TIP3   OH233006   6.692   6.234   0.052 -0.6696 -0.2077 -0.3613
 3816TIP3    H133007   6.661   6.322   0.029 -0.0098  0.4298  1.0868
 3816TIP3    H233008   6.741   6.246   0.133 -2.8456 -2.3136  1.4000
 3817TIP3   OH233009   1.674   0.240   2.102 -0.1960 -0.3866 -0.3201
 3817TIP3    H133010   1.668   0.172   2.035  2.1586 -0.4363 -0.5468
 3817TIP3    H233011   1.740   0.207   2.163 -0.6233  0.7172  0.7787
 3818TIP3   OH233012   3.421   0.540   0.705 -0.2206  0.0519 -0.3010
 3818TIP3    H133013   3.360   0.471   0.680  1.5714 -1.3785 -0.9727
 3818TIP3    H233014   3.440   0.587   0.624 -1.1665  1.1670  0.0920
 3819TIP3   OH233015   5.052   6.631   1.745  0.1245 -0.1084  0.0339
 3819TIP3    H133016   5.067   6.663   1.656 -1.3966  2.2362  0.5360
 3819TIP3    H233017   4.985   6.564   1.735 -0.2136  0.3123 -0.5592
 3820TIP3   OH233018   5.378   3.128   2.301  0.6727 -0.3540  0.3333
 3820TIP3    H133019   5.399   3.124   2.394  1.8476  1.1991  0.1723
 3820TIP3    H233020   5.283   3.139   2.299  0.2071 -3.2529  1.2066
 3821TIP3   OH233021   1.688   4.382   8.141  0.1838  0.1230 -0.0386
 3821TIP3    H133022   1.735   4.409   8.063 -1.4176 -0.9562 -1.4565
 3821TIP3    H233023   1.649   4.463   8.175 -1.1440  0.2801 -1.8248
 3822TIP3   OH233024   0.837   1.289   8.488  0.1281 -0.5258 -0.0632
 3822TIP3    H133025   0.886   1.344   8.427 -0.3235  0.3690  0.3670
 3822TIP3    H233026   0.750   1.329   8.491  0.0191 -0.8186  0.8398
 3823TIP3   OH233027   3.209   3.858   1.644 -0.3757  0.1485  0.2150
 3823TIP3    H133028   3.244   3.787   1.590 -0.8916  0.0588 -0.0057
 3823TIP3    H233029   3.129   3.822   1.683  0.2861  0.0108  1.5147
 3824TIP3   OH233030   0.353   0.870   8.112  0.2146  0.2954  0.5242
 3824TIP3    H133031   0.291   0.874   8.039  0.1232  1.0727  0.6414
 3824TIP3    H233032   0.439   0.867   8.070  0.0990 -1.1243  0.3534
 3825TIP3   OH233033   5.566   5.376   1.901 -0.2406 -0.3119  0.2121
 3825TIP3    H133034   5.574   5.462   1.861  2.4619  0.1893  1.6037
 3825TIP3    H233035   5.491   5.384   1.959  2.1673  2.5907  3.3680
 3826TIP3   OH233036   5.574   2.181   1.152 -0.9489  0.5423 -0.2615
 3826TIP3    H133037   5.655   2.208   1.108 -0.3324 -1.3545 -0.4011
 3826TIP3    H233038   5.602   2.153   1.239 -1.5348  0.2923 -0.1499
 3827TIP3   OH233039   0.644   4.874   8.123 -0.1783 -0.4536 -0.5876
 3827TIP3    H133040   0.579   4.806   8.139 -0.7070 -0.0954 -1.1546
 3827TIP3    H233041   0.624   4.906   8.035  0.8092 -0.3854 -0.8056
 3828TIP3   OH233042   0.087   4.915   1.496  0.4366  0.2392  0.0238
 3828TIP3    H133043   0.029   4.963   1.555  0.8413 -0.1766  0.7697
 3828TIP3    H233044   0.153   4.875   1.553  0.4513 -0.7202 -0.6288
 3829TIP3   OH233045   6.803   1.564   0.776 -0.5156 -0.6203  0.0886
 3829TIP3    H133046   6.774   1.622   0.847 -0.2465 -0.1751 -0.1647
 3829TIP3    H233047   6.826   1.623   0.704  1.5313 -0.9135  0.4546
 3830TIP3   OH233048   0.810   1.977   1.674 -0.2755 -0.2007  0.6339
 3830TIP3    H133049   0.778   2.049   1.729 -0.0737 -0.2849  0.8652
 3830TIP3    H233050   0.736   1.917   1.667 -0.4002 -0.0391  0.5574
 3831TIP3   OH233051   3.969   5.436   0.434 -0.1621  0.6019 -0.2547
 3831TIP3    H133052   3.972   5.349   0.474 -1.2854  1.3608  1.6422
 3831TIP3    H233053   4.055   5.473   0.450 -0.8978  1.3146  2.6839
 3832TIP3   OH233054   3.166   2.609   2.057  0.0797 -0.3624 -0.0005
 3832TIP3    H133055   3.250   2.585   2.018  1.5843  1.9120  1.5905
 3832TIP3    H233056   3.119   2.655   1.987  0.8097 -0.2743 -0.4384
 3833TIP3   OH233057   5.844   1.006   7.507  0.1482  0.4172  0.2143
 3833TIP3    H133058   5.768   0.982   7.454  0.0894 -0.0690  0.5160
 3833TIP3    H233059   5.809   1.023   7.594  0.3350  0.5866  0.2586
 3834TIP3   OH233060   1.723   0.930   7.813  0.6355  0.1904  0.1043
 3834TIP3    H133061   1.816   0.929   7.790  0.7229  0.3067  0.4462
 3834TIP3    H233062   1.698   0.838   7.816  0.9098  0.1291  0.6756
 3835TIP3   OH233063   2.206   4.677   7.319 -0.2522 -0.3187 -0.0133
 3835TIP3    H133064   2.205   4.623   7.240 -1.2619 -0.7589  0.2876
 3835TIP3    H233065   2.273   4.636   7.374 -0.3035 -0.6613 -0.1998
 3836TIP3   OH233066   6.726   0.950   2.825 -0.2297  0.1546  0.8235
 3836TIP3    H133067   6.776   0.881   2.869 -1.1141  0.1013  1.7887
 3836TIP3    H233068   6.701   0.911   2.741 -0.7563 -0.7375  1.3729
 3837TIP3   OH233069   0.748   3.854   1.072  0.2875  0.3512 -0.1839
 3837TIP3    H133070   0.736   3.884   1.162  0.7175  0.4395 -0.1522
 3837TIP3    H233071   0.757   3.935   1.021  1.8786  0.3019 -0.0368
 3838TIP3   OH233072   1.009   3.938   7.440 -0.0300  0.0865 -0.3920
 3838TIP3    H133073   1.018   3.924   7.534  0.6597  2.2743 -0.0717
 3838TIP3    H233074   0.915   3.931   7.424 -0.3094  0.8984  0.7107
 3839TIP3   OH233075   4.189   3.688   1.226  0.0235  0.7639 -0.6305
 3839TIP3    H133076   4.259   3.633   1.262 -0.7070  0.2186 -0.0162
 3839TIP3    H233077   4.206   3.689   1.131 -0.8391 -1.8767 -0.9031
 3840TIP3   OH233078   2.658   0.973   7.880  0.1877  0.2402  0.6615
 3840TIP3    H133079   2.570   0.993   7.850  0.9750 -0.7130 -2.6953
 3840TIP3    H233080   2.662   0.877   7.882  1.4883  0.2206 -0.6783
 3841TIP3   OH233081   1.462   5.377   7.886 -0.5510  0.4748  0.0299
 3841TIP3    H133082   1.515   5.457   7.880  0.8980 -0.4809 -0.1969
 3841TIP3    H233083   1.437   5.358   7.795  0.9155 -0.4906 -0.2014
 3842TIP3   OH233084   3.542   2.232   2.028 -0.3796  0.3038  0.5692
 3842TIP3    H133085   3.564   2.273   2.112  0.9145  0.0482  0.3733
 3842TIP3    H233086   3.625   2.228   1.981 -0.7050 -1.3575  0.0771
 3843TIP3   OH233087   1.740   2.156   0.937  0.2858  0.2750 -0.1366
 3843TIP3    H133088   1.808   2.109   0.888  0.4802 -0.7743  1.0984
 3843TIP3    H233089   1.702   2.216   0.873  1.8825  0.3719 -1.0477
 3844TIP3   OH233090   4.051   2.305   1.120  0.4050 -0.2716  0.2854
 3844TIP3    H133091   3.982   2.250   1.156  0.4519 -1.3640 -1.2320
 3844TIP3    H233092   4.039   2.301   1.025  3.1300 -1.3059 -0.1063
 3845TIP3   OH233093   5.716   2.346   2.135 -0.5033 -0.2775 -0.3163
 3845TIP3    H133094   5.766   2.355   2.216 -2.3020 -1.4756  0.9951
 3845TIP3    H233095   5.646   2.411   2.142 -0.3362  0.0163 -1.2069
 3846TIP3   OH233096   5.593   1.510   1.850 -0.6501  0.3422  0.2815
 3846TIP3    H133097   5.515   1.495   1.903  0.3650  0.8031  1.9583
 3846TIP3    H233098   5.637   1.426   1.846 -1.6149 -0.1439 -1.4124
 3847TIP3   OH233099   6.211   5.176   8.453  0.0916 -0.0056  0.5482
 3847TIP3    H133100   6.284   5.114   8.459  2.2706  2.3462 -0.2439
 3847TIP3    H233101   6.153   5.137   8.387  2.1545 -0.5513 -1.0780
 3848TIP3   OH233102   0.014   5.610   7.076 -0.1287  0.1667 -0.2246
 3848TIP3    H133103  -0.056   5.623   7.141  1.3192 -0.0612  1.4687
 3848TIP3    H233104   0.037   5.699   7.049 -0.0628  0.3295  0.3474
 3849TIP3   OH233105   3.907   1.270   7.998 -0.3224  0.0339  0.2834
 3849TIP3    H133106   3.975   1.206   8.017  0.2663  0.7115  0.5204
 3849TIP3    H233107   3.861   1.281   8.081 -0.4272 -0.0892  0.2414
 3850TIP3   OH233108   0.193   6.599   8.099  0.1909  0.2412  0.0129
 3850TIP3    H133109   0.139   6.570   8.172  0.3898 -0.2309 -0.0226
 3850TIP3    H233110   0.155   6.683   8.072  0.3596  0.6214  0.9116
 3851TIP3   OH233111   6.473   5.537   2.812 -0.2032  0.1758  0.4029
 3851TIP3    H133112   6.555   5.521   2.858  0.8560  4.3713  0.3239
 3851TIP3    H233113   6.484   5.494   2.727  1.7277  0.2795  0.5667
 3852TIP3   OH233114   0.305   4.787   8.049 -0.7884  0.1623 -0.1559
 3852TIP3    H133115   0.370   4.731   8.091 -1.0553 -1.7063 -2.1006
 3852TIP3    H233116   0.222   4.763   8.090 -0.7735 -0.2416 -0.3557
 3853TIP3   OH233117   5.431   6.173   6.835 -0.3018  0.2124  0.0991
 3853TIP3    H133118   5.352   6.137   6.877 -0.6007 -1.6612 -1.9000
 3853TIP3    H233119   5.397   6.239   6.774 -0.0650  1.2541  1.0671
 3854TIP3   OH233120   4.285   2.776   6.947  0.3711 -0.1251  0.3465
 3854TIP3    H133121   4.231   2.831   7.004 -1.0741 -0.2211 -0.8622
 3854TIP3    H233122   4.296   2.694   6.995  0.4324  0.3187  1.1057
 3855TIP3   OH233123   4.226   5.813   2.517 -0.1164  0.2215  0.7638
 3855TIP3    H133124   4.168   5.824   2.592  0.5741  0.2299  1.3079
 3855TIP3    H233125   4.286   5.887   2.522 -1.5505  1.6286 -1.1997
 3856TIP3   OH233126   0.457   6.499   1.634  0.3960 -0.1943 -0.0616
 3856TIP3    H133127   0.427   6.434   1.697  1.0427 -1.6195 -1.1819
 3856TIP3    H233128   0.546   6.473   1.612  0.2575  0.3666 -1.4159
 3857TIP3   OH233129   6.566   4.780   8.233  0.2850 -0.1995 -0.3678
 3857TIP3    H133130   6.631   4.847   8.254  0.5568 -0.3875 -0.5924
 3857TIP3    H233131   6.483   4.827   8.230  0.3164 -0.0764  0.5677
 3858TIP3   OH233132   0.780   5.606   0.505  0.7997  0.0570  0.6282
 3858TIP3    H133133   0.693   5.638   0.481 -0.3972 -2.2503  1.5785
 3858TIP3    H233134   0.817   5.676   0.560 -0.2388  1.2777 -0.1732
 3859TIP3   OH233135   0.814   6.423   3.142 -0.2456 -0.1966  0.4721
 3859TIP3    H133136   0.905   6.441   3.164 -0.9924  2.0740  2.0935
 3859TIP3    H233137   0.801   6.331   3.166  1.0078  0.0877  2.4420
 3860TIP3   OH233138   3.082   5.047   1.659 -0.1566 -0.3276  0.5405
 3860TIP3    H133139   3.054   5.003   1.739  1.1764  0.4914  1.4849
 3860TIP3    H233140   3.012   5.109   1.640 -0.4494 -0.4813  1.1016
 3861TIP3   OH233141   0.926   3.605   7.784 -0.2815 -0.3640 -0.3847
 3861TIP3    H133142   0.992   3.674   7.776  0.1949 -0.7196  0.3508
 3861TIP3    H233143   0.853   3.635   7.731  0.2358  0.3310 -0.7148
 3862TIP3   OH233144   2.492   0.613   0.567 -0.2490 -0.7840 -0.2579
 3862TIP3    H133145   2.479   0.626   0.473 -0.5945 -0.7323 -0.2048
 3862TIP3    H233146   2.408   0.578   0.598 -1.5188  2.7538  0.7247
 3863TIP3   OH233147   1.275   0.483   7.488 -0.4793 -0.1178 -0.4914
 3863TIP3    H133148   1.237   0.542   7.423 -2.2274 -1.9688 -1.2912
 3863TIP3    H233149   1.304   0.407   7.436 -1.6595 -1.5155  0.8012
 3864TIP3   OH233150   1.073   2.547   1.464 -0.1790  0.5375 -0.8253
 3864TIP3    H133151   1.091   2.490   1.538  0.6555  0.4497 -1.0897
 3864TIP3    H233152   1.159   2.570   1.429 -0.5633 -0.0546 -2.2462
 3865TIP3   OH233153   1.310   5.235   0.738  0.0512  0.6049 -0.7492
 3865TIP3    H133154   1.269   5.178   0.803  2.4260 -1.4930 -0.9296
 3865TIP3    H233155   1.261   5.219   0.657  1.5001 -2.5049 -1.1824
 3866TIP3   OH233156   6.728   0.284   7.967 -0.0167 -0.3742  0.0642
 3866TIP3    H133157   6.679   0.205   7.944  0.2549 -0.2979 -0.7978
 3866TIP3    H233158   6.817   0.252   7.986 -0.2287 -0.4334  1.0187
 3867TIP3   OH233159   1.938   0.977   2.103 -0.1347  0.7379  0.2049
 3867TIP3    H133160   1.996   0.912   2.141 -0.0257  0.9862  0.4725
 3867TIP3    H233161   1.996   1.046   2.071 -0.1450  0.0301 -1.4434
 3868TIP3   OH233162   5.642   6.684   0.872 -0.3909  0.1428  0.0299
 3868TIP3    H133163   5.691   6.766   0.860  0.9487 -0.4720  1.0679
 3868TIP3    H233164   5.709   6.617   0.886 -1.4560 -1.2280 -1.1771
 3869TIP3   OH233165   5.068   5.271   0.975 -0.0891 -0.2763 -0.4782
 3869TIP3    H133166   5.007   5.312   0.915 -1.0273 -0.3770  0.3819
 3869TIP3    H233167   5.122   5.343   1.007 -0.2530 -0.0680 -0.6661
 3870TIP3   OH233168   6.109   5.603   8.485 -0.2240 -0.3513 -0.2542
 3870TIP3    H133169   6.163   5.525   8.494  0.0086  0.0098  1.8483
 3870TIP3    H233170   6.116   5.625   8.392  1.6867 -1.4198 -0.4279
 3871TIP3   OH233171   5.108   0.406   8.173 -0.0790 -0.4640  0.9556
 3871TIP3    H133172   5.188   0.356   8.157 -0.0025 -0.2350  0.5999
 3871TIP3    H233173   5.079   0.433   8.085 -0.9467 -1.1553  1.0116
 3872TIP3   OH233174   2.528   1.119   8.272  0.3236 -0.1274 -0.0654
 3872TIP3    H133175   2.531   1.052   8.341 -0.4684 -0.0756  0.0274
 3872TIP3    H233176   2.620   1.131   8.247  0.4962 -1.1436  0.0180
 3873TIP3   OH233177   4.005   1.977   0.944 -0.4206 -0.6724 -0.1968
 3873TIP3    H133178   3.948   2.043   0.904  0.0370 -0.9608 -1.3614
 3873TIP3    H233179   3.944   1.915   0.984 -0.8544  0.4958  1.0307
 3874TIP3   OH233180   3.883   5.292   1.067 -0.3446 -0.1961  0.1835
 3874TIP3    H133181   3.791   5.293   1.094 -0.1754 -1.0138  0.8271
 3874TIP3    H233182   3.923   5.363   1.116 -0.3625 -0.6969  0.9448
 3875TIP3   OH233183   5.623   1.823   6.871  0.2533 -0.2094  0.2742
 3875TIP3    H133184   5.543   1.873   6.883 -0.4237 -0.8636 -1.2644
 3875TIP3    H233185   5.595   1.743   6.827  1.7919 -0.2858 -0.6317
 3876TIP3   OH233186   3.833   2.281   8.105  0.4428  0.3431 -0.8263
 3876TIP3    H133187   3.870   2.218   8.043  0.2271  0.0344 -0.6466
 3876TIP3    H233188   3.863   2.366   8.074  0.4866  0.1757 -1.2481
 3877TIP3   OH233189   5.240   3.990   1.899  0.0218 -0.5991 -0.1113
 3877TIP3    H133190   5.226   4.085   1.892  0.4545 -0.5926 -0.9321
 3877TIP3    H233191   5.225   3.971   1.992 -0.3022  0.2319  0.0175
 3878TIP3   OH233192   6.610   5.089   8.319 -0.6815 -0.0570 -0.0714
 3878TIP3    H133193   6.645   5.058   8.235 -1.2408  0.4713 -0.5116
 3878TIP3    H233194   6.529   5.134   8.295 -0.8081  0.1577  0.7528
 3879TIP3   OH233195   0.077   2.090   8.209  0.1516 -0.2827 -0.0523
 3879TIP3    H133196   0.093   2.124   8.297 -0.9356 -1.1867  0.5219
 3879TIP3    H233197   0.165   2.083   8.170  0.6284  0.3060  0.8843
 3880TIP3   OH233198   4.652   4.690   0.974  0.1144 -0.5091 -0.9425
 3880TIP3    H133199   4.658   4.775   1.017 -0.3021  0.3790 -2.5732
 3880TIP3    H233200   4.558   4.669   0.976  0.2178 -0.9558 -0.5274
 3881TIP3   OH233201   1.045   0.712   8.534 -0.2496  0.2080 -0.9395
 3881TIP3    H133202   0.987   0.661   8.477 -0.5833 -0.0670 -0.3560
 3881TIP3    H233203   0.987   0.775   8.578  0.1985  1.3030 -1.8650
 3882TIP3   OH233204   4.464   6.746   2.469 -0.1180 -0.3138 -0.1359
 3882TIP3    H133205   4.381   6.727   2.513  0.8072  0.6819  2.1859
 3882TIP3    H233206   4.445   6.824   2.416 -0.8140 -0.4353 -0.0769
 3883TIP3   OH233207   6.666   5.927   2.411  0.4172 -0.1075 -0.1787
 3883TIP3    H133208   6.728   6.000   2.404  1.1734 -0.7597 -0.4595
 3883TIP3    H233209   6.706   5.867   2.474 -0.5499  0.0466  0.6118
 3884TIP3   OH233210   6.666   1.198   8.349  1.0624 -0.4128  0.3544
 3884TIP3    H133211   6.652   1.201   8.443  1.7631  1.4365  0.4396
 3884TIP3    H233212   6.618   1.121   8.320 -0.2792 -0.2676  2.0346
 3885TIP3   OH233213   2.164   3.590   7.502  0.0861  0.0706  0.0996
 3885TIP3    H133214   2.224   3.531   7.457  1.5917  1.3175  0.3926
 3885TIP3    H233215   2.206   3.609   7.586 -0.0641  1.9522 -0.2060
 3886TIP3   OH233216   2.083   1.240   0.722 -0.4383  0.2622  0.2046
 3886TIP3    H133217   2.088   1.195   0.638  1.5174 -0.0138  0.4197
 3886TIP3    H233218   2.044   1.176   0.781 -0.1536 -0.2034 -0.1013
 3887TIP3   OH233219   4.157   1.411   1.619 -0.6447  0.3837  0.3833
 3887TIP3    H133220   4.129   1.350   1.551 -0.0340  0.0218  0.4511
 3887TIP3    H233221   4.116   1.494   1.596 -1.7385 -0.1201  0.4584
 3888TIP3   OH233222   6.659   4.368   7.264  0.0752  0.8797 -0.6346
 3888TIP3    H133223   6.714   4.430   7.217  2.1500 -1.7403 -1.8831
 3888TIP3    H233224   6.658   4.401   7.354  0.3849  3.1336 -1.3927
 3889TIP3   OH233225   5.036   5.053   7.197  0.0067 -0.1109 -0.3978
 3889TIP3    H133226   5.096   5.111   7.150  0.3120 -0.1510 -0.0614
 3889TIP3    H233227   5.084   5.028   7.276 -0.0979 -0.8901 -0.5822
 3890TIP3   OH233228   4.380   1.285   2.369  0.3470  0.0124 -0.6976
 3890TIP3    H133229   4.403   1.284   2.462  0.0839  0.8345 -0.6129
 3890TIP3    H233230   4.305   1.226   2.362 -0.2283  0.6710 -0.2154
 3891TIP3   OH233231   1.739   2.639   7.152  0.4325  0.4064  0.1303
 3891TIP3    H133232   1.724   2.625   7.245  0.4353 -0.1010  0.0577
 3891TIP3    H233233   1.819   2.590   7.133  0.7601  0.9840 -0.0190
 3892TIP3   OH233234   1.325   2.188   1.305  0.2755  0.4972 -0.0691
 3892TIP3    H133235   1.235   2.189   1.273 -0.2897  1.5163  1.4423
 3892TIP3    H233236   1.364   2.267   1.268  1.1051 -0.7286 -2.0260
 3893TIP3   OH233237   4.487   0.067   8.280 -0.0525 -0.0533  0.2670
 3893TIP3    H133238   4.481   0.030   8.192 -4.9256 -1.3672  0.8527
 3893TIP3    H233239   4.492  -0.009   8.338 -0.4469  0.5975  1.1825
 3894TIP3   OH233240   5.773   6.298   8.209  0.4705 -0.3701  0.0817
 3894TIP3    H133241   5.683   6.327   8.195  0.4941 -0.7531 -0.9978
 3894TIP3    H233242   5.814   6.368   8.260 -0.5127 -0.3393  0.8606
 3895TIP3   OH233243   4.331   1.575   7.953 -0.3687 -0.7648 -0.0073
 3895TIP3    H133244   4.331   1.483   7.923 -1.6024 -1.0069  0.7154
 3895TIP3    H233245   4.364   1.571   8.042 -0.1582 -0.4622 -0.0696
 3896TIP3   OH233246   2.193   5.383   8.353  0.2419  0.0115 -0.1637
 3896TIP3    H133247   2.231   5.335   8.426  2.0559  1.0725 -0.3524
 3896TIP3    H233248   2.251   5.364   8.279  0.9955  2.3580 -0.2562
 3897TIP3   OH233249   1.155   1.688   0.241 -0.1340  0.3560  0.1725
 3897TIP3    H133250   1.229   1.745   0.263  1.4171 -0.0736 -3.3457
 3897TIP3    H233251   1.149   1.628   0.315  1.5342  1.8059  1.5900
 3898TIP3   OH233252   6.696   5.650   0.262 -0.5876  0.4504  0.0072
 3898TIP3    H133253   6.737   5.594   0.328  0.4420 -0.1827 -1.1444
 3898TIP3    H233254   6.605   5.659   0.292 -0.3345 -0.4286  1.1024
 3899TIP3   OH233255   1.290   4.376   7.513  0.1627 -0.0294  0.3470
 3899TIP3    H133256   1.347   4.388   7.589 -0.4167  0.2674  0.7424
 3899TIP3    H233257   1.266   4.283   7.515  1.8770 -0.5426 -0.7327
 3900TIP3   OH233258   1.711   0.709   0.546 -0.4140 -0.1768 -0.0908
 3900TIP3    H133259   1.786   0.769   0.537  0.3666 -0.8431  1.6584
 3900TIP3    H233260   1.655   0.750   0.611  0.0003 -1.1899  0.9324
 3901TIP3   OH233261   3.223   2.722   7.697  0.1841 -0.1586 -0.0491
 3901TIP3    H133262   3.214   2.645   7.753  1.7142 -0.0122  0.4447
 3901TIP3    H233263   3.213   2.688   7.608 -0.2520 -0.7351  0.2107
 3902TIP3   OH233264   2.525   5.113   2.755 -0.1481  0.2135 -0.1695
 3902TIP3    H133265   2.432   5.101   2.739 -0.4950 -1.2114  2.3855
 3902TIP3    H233266   2.534   5.207   2.775 -0.8254  0.5496 -1.3460
 3903TIP3   OH233267   5.749   5.331   0.899  0.0084  0.4110  0.0093
 3903TIP3    H133268   5.737   5.380   0.817 -0.9771  2.2772  1.1942
 3903TIP3    H233269   5.795   5.392   0.957 -0.1134 -0.5324  1.1391
 3904TIP3   OH233270   4.447   1.174   0.187  0.1452 -0.1802 -0.1247
 3904TIP3    H133271   4.402   1.252   0.153 -0.5853 -1.0620 -1.2803
 3904TIP3    H233272   4.528   1.170   0.136  1.2502  1.0025  1.4527
 3905TIP3   OH233273   1.873   4.798   8.097 -0.1276 -0.2283  0.2116
 3905TIP3    H133274   1.829   4.792   8.013  0.1659  0.3411  0.0110
 3905TIP3    H233275   1.896   4.708   8.119 -0.8045 -0.4571  0.0091
 3906TIP3   OH233276   6.149   6.416   7.753  0.3385  0.3254 -0.4966
 3906TIP3    H133277   6.144   6.335   7.804  0.6820  0.4158 -0.3131
 3906TIP3    H233278   6.188   6.390   7.670 -1.2600 -0.0233 -1.1591
 3907TIP3   OH233279   4.253   1.752   1.705  0.3546 -0.0948 -0.4309
 3907TIP3    H133280   4.294   1.666   1.719 -1.6498 -1.0700 -0.1254
 3907TIP3    H233281   4.185   1.735   1.641  1.8368  1.9493 -2.6887
 3908TIP3   OH233282   4.568   1.529   2.535 -0.8765  0.1373 -0.1779
 3908TIP3    H133283   4.486   1.568   2.564 -1.4846  0.9395 -2.6697
 3908TIP3    H233284   4.549   1.436   2.526 -0.3013 -0.3824  2.9107
 3909TIP3   OH233285   1.069   0.346   3.271  1.0378 -0.1448 -0.5249
 3909TIP3    H133286   0.980   0.314   3.289  0.6837  0.9099 -0.2898
 3909TIP3    H233287   1.120   0.320   3.348  0.8116 -0.3176 -0.4324
 3910TIP3   OH233288   5.791   4.525   2.993  0.3033  0.1966  0.2068
 3910TIP3    H133289   5.797   4.488   2.905  1.6975 -0.7878  0.6811
 3910TIP3    H233290   5.735   4.602   2.983 -0.3429 -0.4301 -1.3531
 3911TIP3   OH233291   2.468   0.454   2.207 -0.2221  0.4593  0.2179
 3911TIP3    H133292   2.555   0.479   2.176  0.6699 -0.7616  1.5748
 3911TIP3    H233293   2.426   0.414   2.131  1.2925 -1.0213  0.0832
 3912TIP3   OH233294   5.932   5.737   7.736 -0.7261  0.1988  0.1460
 3912TIP3    H133295   5.914   5.686   7.657 -1.7816  1.5303 -0.5140
 3912TIP3    H233296   6.023   5.716   7.758 -0.1195  0.4157 -1.9111
 3913TIP3   OH233297   4.969   3.832   0.364  0.0761  0.0585 -0.0908
 3913TIP3    H133298   4.911   3.786   0.302  1.1747  0.2394 -1.3005
 3913TIP3    H233299   4.919   3.835   0.445 -1.1783 -0.7400 -0.7890
 3914TIP3   OH233300   1.020   0.691   6.860  0.0857  0.1151 -0.3664
 3914TIP3    H133301   0.989   0.782   6.854  1.2699  0.5152 -0.7082
 3914TIP3    H233302   1.090   0.686   6.795 -1.1408 -1.5525 -1.6609
 3915TIP3   OH233303   3.891   6.367   0.769 -0.0089 -0.0577 -0.3134
 3915TIP3    H133304   3.812   6.341   0.816 -0.1916 -0.4941 -0.8501
 3915TIP3    H233305   3.937   6.284   0.752 -0.0468  0.0729 -1.0795
 3916TIP3   OH233306   3.886   6.783   2.311 -0.3231 -0.2449  0.0653
 3916TIP3    H133307   3.828   6.716   2.347 -1.0346  0.8451  1.0168
 3916TIP3    H233308   3.952   6.796   2.379  0.3110 -0.5640 -0.4756
 3917TIP3   OH233309   3.007   5.515   7.894  0.7729  0.0305  0.1443
 3917TIP3    H133310   2.993   5.422   7.877  2.6062 -0.5953  1.6581
 3917TIP3    H233311   2.961   5.532   7.975  0.0783  0.5825 -0.3518
 3918TIP3   OH233312   1.652   0.121   7.869 -0.6647  0.1814 -0.1234
 3918TIP3    H133313   1.656   0.030   7.842 -2.1712  0.1492 -0.3342
 3918TIP3    H233314   1.600   0.121   7.949  0.2979  0.7434  0.5249
 3919TIP3   OH233315   6.555   4.119   2.256 -0.4566  0.9645 -0.2533
 3919TIP3    H133316   6.520   4.119   2.167  0.0559 -0.0991 -0.4624
 3919TIP3    H233317   6.477   4.116   2.312 -0.7399 -0.5878 -0.7048
 3920TIP3   OH233318   0.253   3.579   2.367 -0.6371  0.3515  0.4893
 3920TIP3    H133319   0.340   3.539   2.362 -1.3892 -1.3362 -0.0335
 3920TIP3    H233320   0.253   3.646   2.298 -0.2621 -0.7391 -0.6044
 3921TIP3   OH233321   3.889   2.733   0.158 -0.1058 -0.1044  0.2815
 3921TIP3    H133322   3.943   2.810   0.178  1.2472 -1.3063  1.4971
 3921TIP3    H233323   3.933   2.692   0.083  1.2149 -1.4838  1.7192
 3922TIP3   OH233324   6.426   0.978   1.165 -0.8544  0.4344 -0.7306
 3922TIP3    H133325   6.366   1.052   1.176 -1.5321 -0.1648 -0.2773
 3922TIP3    H233326   6.402   0.918   1.236 -0.3398 -0.2341 -1.1168
 3923TIP3   OH233327   2.817   4.574   1.234 -0.2137 -0.1098 -0.4389
 3923TIP3    H133328   2.884   4.604   1.173  1.4750 -0.2983  1.2389
 3923TIP3    H233329   2.844   4.609   1.319 -0.6267 -2.6004  0.8061
 3924TIP3   OH233330   3.622   4.181   7.387  0.1718 -0.0582 -0.5741
 3924TIP3    H133331   3.589   4.102   7.345 -0.4974 -0.0243 -0.1313
 3924TIP3    H233332   3.699   4.205   7.336  2.1499 -2.6187  0.9517
 3925TIP3   OH233333   3.417   3.220   0.431 -0.2121  0.9016 -0.1451
 3925TIP3    H133334   3.502   3.191   0.462 -0.0102  2.9734  1.4651
 3925TIP3    H233335   3.357   3.149   0.456  1.1932 -1.5291 -3.0729
 3926TIP3   OH233336   3.809   4.350   8.254  0.1856 -0.1631  0.1458
 3926TIP3    H133337   3.811   4.264   8.213  0.6220 -1.9546  3.5496
 3926TIP3    H233338   3.893   4.389   8.232  0.3699 -0.9827 -0.6738
 3927TIP3   OH233339   0.421   1.069   2.187 -0.2507 -0.5589  0.1606
 3927TIP3    H133340   0.395   1.140   2.128 -2.0325 -1.3903 -0.1353
 3927TIP3    H233341   0.475   1.112   2.254 -0.1565  0.8194 -0.7507
 3928TIP3   OH233342   0.689   2.091   0.883  0.1921  0.2690  0.2570
 3928TIP3    H133343   0.676   1.999   0.906  2.1062  0.0991  0.8775
 3928TIP3    H233344   0.722   2.130   0.964  1.8226  0.9075 -0.6709
 3929TIP3   OH233345   2.644   5.065   0.422  1.3719  0.3792 -0.5556
 3929TIP3    H133346   2.621   5.121   0.497  0.8389  0.9980 -1.1656
 3929TIP3    H233347   2.592   4.986   0.435  1.7763  0.2068  0.0704
 3930TIP3   OH233348   6.546   5.679   1.141  0.2130  0.7121  0.1548
 3930TIP3    H133349   6.584   5.595   1.168 -1.0053 -0.3615 -1.3139
 3930TIP3    H233350   6.519   5.665   1.050 -2.1710  1.9450  0.6064
 3931TIP3   OH233351   2.697   5.753   0.524 -0.6056  0.3936 -0.1980
 3931TIP3    H133352   2.775   5.705   0.497 -2.9815 -3.8500 -0.3091
 3931TIP3    H233353   2.644   5.760   0.444 -1.5854  0.6396  0.4537
 3932TIP3   OH233354   1.851   6.838   8.486  0.2198 -0.4469 -0.0656
 3932TIP3    H133355   1.875   6.745   8.492  2.6540  0.1929  1.1849
 3932TIP3    H233356   1.808   6.857   8.570 -0.7216 -0.5349 -0.5179
 3933TIP3   OH233357   2.915   5.057   0.815  0.3103  0.3426  0.3369
 3933TIP3    H133358   3.009   5.073   0.825  0.2918  0.5452  0.1882
 3933TIP3    H233359   2.895   5.083   0.725  0.6396 -2.1873 -0.5675
 3934TIP3   OH233360   1.556   5.670   0.037 -0.8391  0.4340 -0.1562
 3934TIP3    H133361   1.629   5.710  -0.010 -1.5465  1.1593 -0.6470
 3934TIP3    H233362   1.539   5.729   0.110 -0.1399 -0.3774  0.6883
 3935TIP3   OH233363   3.095   5.884   1.460  0.0943  0.2056 -0.5385
 3935TIP3    H133364   3.144   5.813   1.502 -0.7043 -0.7781 -1.2090
 3935TIP3    H233365   3.135   5.893   1.374 -0.4830 -0.1835 -0.8571
 3936TIP3   OH233366   3.563   2.275   6.908  0.3713  0.4963 -0.7434
 3936TIP3    H133367   3.585   2.205   6.847 -0.6341 -0.7712  0.2988
 3936TIP3    H233368   3.476   2.304   6.880  0.3780  0.6770 -0.5760
 3937TIP3   OH233369   2.649   4.102   0.376  0.6826  0.2808 -0.1042
 3937TIP3    H133370   2.734   4.059   0.380  0.5803  0.1010  0.1984
 3937TIP3    H233371   2.653   4.158   0.299  0.4447 -1.0869 -1.1450
 3938TIP3   OH233372   6.153   3.782   1.589  0.6046  0.4328  0.3990
 3938TIP3    H133373   6.214   3.854   1.605  1.0331  0.5168 -1.3915
 3938TIP3    H233374   6.179   3.714   1.651  1.1789  1.2484  1.0651
 3939TIP3   OH233375   1.491   3.404   0.736 -0.5001  0.3292  0.0296
 3939TIP3    H133376   1.450   3.491   0.731 -1.2533  0.0126  0.4614
 3939TIP3    H233377   1.580   3.422   0.764 -0.9118  0.9179  1.0459
 3940TIP3   OH233378   4.001   6.355   0.506 -0.1112  0.3462  0.2091
 3940TIP3    H133379   4.083   6.403   0.501 -0.8467  1.5611 -1.0078
 3940TIP3    H233380   3.967   6.374   0.594 -0.1828  1.7562 -0.1044
 3941TIP3   OH233381   0.952   3.677   1.014  0.2783  0.0032  0.6415
 3941TIP3    H133382   0.973   3.656   1.105 -0.0760  0.8753  0.9426
 3941TIP3    H233383   0.886   3.746   1.021  1.2153  1.0327 -0.2615
 3942TIP3   OH233384   1.346   2.396   2.268  0.0231 -0.0285 -0.6398
 3942TIP3    H133385   1.437   2.394   2.238  0.3736  0.7292  0.2998
 3942TIP3    H233386   1.297   2.435   2.196  0.3137 -1.0929 -1.4356
 3943TIP3   OH233387   6.358   6.496   0.909 -0.9757  0.0081 -0.3875
 3943TIP3    H133388   6.425   6.449   0.958 -0.2989 -0.1343 -1.4137
 3943TIP3    H233389   6.381   6.589   0.919 -2.0241  0.1337  1.2239
 3944TIP3   OH233390   2.431   6.291   1.189  0.6994 -0.2746  0.3643
 3944TIP3    H133391   2.429   6.342   1.270 -2.3235 -1.2146  1.0109
 3944TIP3    H233392   2.394   6.350   1.123  2.3507  0.1874 -0.1931
 3945TIP3   OH233393   2.742   2.184   8.568 -0.0465  0.0414 -0.0560
 3945TIP3    H133394   2.726   2.134   8.649 -0.0062 -0.6523 -0.4640
 3945TIP3    H233395   2.810   2.246   8.591  0.6049 -0.7532  0.2196
 3946TIP3   OH233396   6.561   5.360   1.905 -0.1521 -0.7783  0.0241
 3946TIP3    H133397   6.553   5.338   1.812  1.2704  1.8438 -0.8119
 3946TIP3    H233398   6.502   5.434   1.917  0.6066 -0.2974  0.9012
 3947TIP3   OH233399   4.382   4.795   8.192  0.4298  0.0943 -0.3534
 3947TIP3    H133400   4.354   4.707   8.165 -0.6382  0.2141  0.3105
 3947TIP3    H233401   4.318   4.821   8.259  1.2881  0.9970  0.1334
 3948TIP3   OH233402   1.923   0.496   7.616 -0.3263 -0.0504  0.7414
 3948TIP3    H133403   1.881   0.413   7.640 -1.5896  0.7475  1.4391
 3948TIP3    H233404   1.925   0.495   7.521 -1.5744 -0.3156  0.6961
 3949TIP3   OH233405   2.496   5.470   2.538 -0.1147  0.2670 -0.0075
 3949TIP3    H133406   2.476   5.556   2.501  3.4749  1.0781 -0.4273
 3949TIP3    H233407   2.531   5.489   2.625  1.6204 -0.6401 -0.4721
 3950TIP3   OH233408   1.933   2.562   7.812 -0.1560  0.0825  0.7200
 3950TIP3    H133409   2.010   2.616   7.833  0.1569 -0.5069  1.1040
 3950TIP3    H233410   1.903   2.529   7.896  0.1743 -1.0404  0.4097
 3951TIP3   OH233411   2.226   3.841   0.366  0.8838  0.0210 -0.4648
 3951TIP3    H133412   2.299   3.854   0.426 -0.8796  0.4371  1.7180
 3951TIP3    H233413   2.149   3.835   0.422 -0.5373 -2.8642 -2.4482
 3952TIP3   OH233414   1.111   1.016   6.879  0.2843  0.2367 -0.6394
 3952TIP3    H133415   1.046   0.992   6.812  0.0320  0.8049 -0.5996
 3952TIP3    H233416   1.195   0.996   6.838  0.0813 -1.2007 -0.4277
 3953TIP3   OH233417   3.644   0.596   1.703 -0.0867 -0.4600 -0.6976
 3953TIP3    H133418   3.577   0.662   1.687 -0.0549 -0.7244 -2.0227
 3953TIP3    H233419   3.715   0.619   1.643 -0.6206 -2.4537 -2.2015
 3954TIP3   OH233420   3.308   5.139   2.478  0.2756  0.1614 -0.0007
 3954TIP3    H133421   3.276   5.229   2.477  1.5698  0.7079  2.0561
 3954TIP3    H233422   3.398   5.146   2.510  0.6816 -1.8071 -0.5654
 3955TIP3   OH233423   4.358   5.351   0.071 -0.3768 -0.0695  0.1412
 3955TIP3    H133424   4.278   5.353   0.124 -0.8202  0.4536 -0.5394
 3955TIP3    H233425   4.376   5.443   0.051 -0.0805 -0.2481 -0.4240
 3956TIP3   OH233426   2.855   0.720   7.595  0.2880  0.2018 -0.3094
 3956TIP3    H133427   2.829   0.812   7.600  2.0109  0.7092  0.0359
 3956TIP3    H233428   2.947   0.719   7.622  0.4305 -1.5750 -0.6918
 3957TIP3   OH233429   5.825   5.136   0.129  0.0354 -0.1921 -0.0533
 3957TIP3    H133430   5.805   5.071   0.197 -0.8688 -1.8241 -1.7703
 3957TIP3    H233431   5.919   5.127   0.115  0.3803  0.7043  1.4533
 3958TIP3   OH233432   2.110   5.235   0.890 -0.1316 -0.3478 -0.1243
 3958TIP3    H133433   2.162   5.306   0.852  0.3303 -0.7312 -0.2209
 3958TIP3    H233434   2.086   5.180   0.815  0.8580 -1.1568  0.1254
 3959TIP3   OH233435   2.512   1.321   7.879  0.3576  0.7291 -0.2149
 3959TIP3    H133436   2.419   1.322   7.859  0.4764  0.0197 -0.8176
 3959TIP3    H233437   2.520   1.265   7.956  0.3978 -0.0354 -0.7674
 3960TIP3   OH233438   1.348   2.598   8.524 -0.5901 -0.4112 -0.4029
 3960TIP3    H133439   1.404   2.525   8.549 -1.7577 -0.1582  3.8213
 3960TIP3    H233440   1.266   2.557   8.498 -0.5823 -0.6911 -0.0070
 3961TIP3   OH233441   6.783   5.923   7.024  0.9978 -0.1704  0.6014
 3961TIP3    H133442   6.824   5.953   7.105  0.2619 -1.2197  1.3921
 3961TIP3    H233443   6.850   5.869   6.981  0.4196 -2.2082  2.0777
 3962TIP3   OH233444   0.200   0.616   7.835  0.0764 -0.4460  0.2375
 3962TIP3    H133445   0.231   0.570   7.913  0.6425 -0.2244  0.1474
 3962TIP3    H233446   0.170   0.701   7.868 -1.7983 -1.1731  0.5372
 3963TIP3   OH233447   2.587   4.861   1.159 -0.1241 -0.7010  0.3331
 3963TIP3    H133448   2.660   4.870   1.097  1.4471 -0.6336  2.1138
 3963TIP3    H233449   2.525   4.804   1.114  0.8310 -0.4521 -1.4049
 3964TIP3   OH233450   6.454   4.980   2.289 -0.8225 -0.6934  0.1552
 3964TIP3    H133451   6.477   4.981   2.382 -0.2920  1.5706  0.0534
 3964TIP3    H233452   6.537   4.972   2.243 -0.8429  0.6291 -0.1365
 3965TIP3   OH233453   4.514   5.303   1.753  0.4577  0.1032 -0.0330
 3965TIP3    H133454   4.513   5.247   1.676 -2.0520  1.4006 -1.0484
 3965TIP3    H233455   4.516   5.242   1.827 -2.5699 -1.4446 -1.0643
 3966TIP3   OH233456   1.965   6.696   1.378  0.1989 -0.4272  0.3496
 3966TIP3    H133457   1.957   6.619   1.434  0.0598  0.1982  1.2161
 3966TIP3    H233458   1.916   6.764   1.424 -1.5170 -0.3551 -1.4466
 3967TIP3   OH233459   6.288   6.164   8.460 -0.1339 -0.2159 -0.0000
 3967TIP3    H133460   6.285   6.115   8.542  0.5664  0.1279  0.2389
 3967TIP3    H233461   6.281   6.256   8.486  0.6559 -0.0658 -0.2624
 3968TIP3   OH233462   1.534   5.175   0.298  0.6543 -0.8241 -0.1184
 3968TIP3    H133463   1.583   5.229   0.361  0.7608 -0.1057 -0.8064
 3968TIP3    H233464   1.535   5.225   0.217 -2.1300 -0.2469  0.0873
 3969TIP3   OH233465   5.866   4.005   1.836 -0.2067  0.3041  0.1697
 3969TIP3    H133466   5.779   3.973   1.814 -1.2994  0.5477  3.5887
 3969TIP3    H233467   5.871   4.092   1.796 -1.2393  0.0215 -0.6096
 3970TIP3   OH233468   1.520   1.591   7.914  0.5372  0.0853  0.0526
 3970TIP3    H133469   1.480   1.523   7.860  1.5536  0.1005 -0.7649
 3970TIP3    H233470   1.558   1.652   7.850  3.2253 -0.7589  0.6858
 3971TIP3   OH233471   2.316   4.862   7.020 -0.2355  0.0728  0.0380
 3971TIP3    H133472   2.236   4.818   7.046 -0.6699  0.0413 -1.2972
 3971TIP3    H233473   2.379   4.792   7.005 -0.8110 -0.1217 -1.6968
 3972TIP3   OH233474   4.813   3.531   8.565 -0.2303  0.5104 -0.1769
 3972TIP3    H133475   4.872   3.551   8.493 -1.4014  1.4647 -0.9034
 3972TIP3    H233476   4.858   3.462   8.614  1.2857  0.9176 -0.9275
 3973TIP3   OH233477   0.353   2.535   0.179  0.1945 -0.1704  0.7793
 3973TIP3    H133478   0.329   2.499   0.094  1.1871  1.7846 -0.3986
 3973TIP3    H233479   0.292   2.608   0.192  1.8637  1.3844  0.3141
 3974TIP3   OH233480   2.137   6.730   1.036  0.4433 -0.0727 -0.0355
 3974TIP3    H133481   2.225   6.695   1.048  0.2878 -0.1336  1.0428
 3974TIP3    H233482   2.114   6.765   1.122 -1.6311 -2.4497  0.4654
 3975TIP3   OH233483   2.061   0.418   0.361 -0.1363  0.2503  0.2731
 3975TIP3    H133484   2.120   0.364   0.309  0.0845  1.3155 -0.6009
 3975TIP3    H233485   1.990   0.358   0.387  0.4897 -0.6307 -0.0331
 3976TIP3   OH233486   1.218   0.802   0.212 -0.0450 -0.2329 -0.5733
 3976TIP3    H133487   1.290   0.862   0.231 -0.8422  0.6504 -0.2322
 3976TIP3    H233488   1.250   0.748   0.141  0.8872  0.2656 -0.5509
 3977TIP3   OH233489   0.534   0.063   1.818  0.4902 -0.0203  0.3664
 3977TIP3    H133490   0.546   0.017   1.901  0.7329 -0.7399 -0.0619
 3977TIP3    H233491   0.590   0.016   1.756 -1.0218 -0.6068 -0.6170
 3978TIP3   OH233492   0.155   2.905   1.817  0.4105  0.3305 -0.4375
 3978TIP3    H133493   0.078   2.948   1.782 -1.3072 -1.1737  1.2914
 3978TIP3    H233494   0.216   2.976   1.837 -1.2507  1.7289 -0.1810
 3979TIP3   OH233495   0.205   0.916   7.887 -0.1749 -0.2284  0.2867
 3979TIP3    H133496   0.263   0.968   7.832  1.3276 -1.6748  0.4221
 3979TIP3    H233497   0.139   0.882   7.826 -0.4048  0.7528 -0.0273
 3980TIP3   OH233498   3.866   5.071   1.956  0.5069  0.5664  0.6011
 3980TIP3    H133499   3.819   5.010   1.899 -0.7841  0.4069  1.7821
 3980TIP3    H233500   3.941   5.021   1.988  0.4924  0.2164  0.0939
 3981TIP3   OH233501   6.686   2.152   1.838  0.4819  0.3726 -0.6039
 3981TIP3    H133502   6.740   2.076   1.815  0.7013  0.4535 -0.3636
 3981TIP3    H233503   6.709   2.171   1.929  0.6241  0.8898 -0.7449
 3982TIP3   OH233504   0.479   5.603   1.178 -0.1596 -0.3497 -0.5945
 3982TIP3    H133505   0.386   5.619   1.195 -0.0141 -1.0411  0.9404
 3982TIP3    H233506   0.499   5.660   1.103 -1.5200  0.7229 -0.1841
 3983TIP3   OH233507   3.406   4.340   8.562  0.2509 -0.4696 -0.0532
 3983TIP3    H133508   3.474   4.279   8.592 -0.3137 -1.3161 -0.4751
 3983TIP3    H233509   3.342   4.341   8.633 -0.8613 -2.1275 -0.9817
 3984TIP3   OH233510   0.914   6.818   0.220 -0.4452 -0.2253  0.1630
 3984TIP3    H133511   0.986   6.873   0.249 -1.2645  1.7054 -1.2600
 3984TIP3    H233512   0.943   6.728   0.237  2.1126  0.5072 -0.0094
 3985TIP3   OH233513   0.870   1.008   0.885  0.0423  0.2507  0.5203
 3985TIP3    H133514   0.822   0.965   0.956  0.9865  0.1081  1.0961
 3985TIP3    H233515   0.867   0.946   0.812 -1.5606  0.7050  0.1611
 3986TIP3   OH233516   0.648   1.349   1.900  0.2921  0.1167  0.0102
 3986TIP3    H133517   0.623   1.413   1.967 -0.2219  0.0511 -0.1164
 3986TIP3    H233518   0.604   1.268   1.927 -0.0526  0.1321 -0.4926
 3987TIP3   OH233519   4.458   2.449   8.328 -0.5545  0.1320 -0.2132
 3987TIP3    H133520   4.538   2.448   8.381  0.7777 -0.0361 -2.1018
 3987TIP3    H233521   4.490   2.458   8.238 -2.6100 -1.2215 -1.1413
 3988TIP3   OH233522   6.471   1.792   0.158  0.2547  0.0650 -0.3722
 3988TIP3    H133523   6.500   1.882   0.148 -0.3778  0.4532  1.0075
 3988TIP3    H233524   6.493   1.750   0.074  0.6492  1.4570 -0.9982
 3989TIP3   OH233525   4.097   6.373   0.033  0.2577 -1.4768 -0.0556
 3989TIP3    H133526   4.014   6.358   0.078 -0.5508 -0.5592 -1.1850
 3989TIP3    H233527   4.073   6.396  -0.057  1.5642  1.3373  0.2073
 3990TIP3   OH233528   3.162   3.037   0.772  0.0496 -0.3742  0.6241
 3990TIP3    H133529   3.256   3.033   0.757  0.1241  0.9877  0.5405
 3990TIP3    H233530   3.145   3.129   0.792 -1.1676 -0.7226  1.3293
 3991TIP3   OH233531   0.616   2.491   1.067  0.2179 -0.0488  0.0378
 3991TIP3    H133532   0.590   2.433   1.139 -1.8422  0.4985 -0.1848
 3991TIP3    H233533   0.667   2.560   1.109 -0.5038 -0.0243  0.9038
 3992TIP3   OH233534   6.645   1.493   6.666  0.2016 -0.5992  0.1720
 3992TIP3    H133535   6.608   1.492   6.754  0.0414 -0.3360  0.1084
 3992TIP3    H233536   6.737   1.514   6.678  0.1965 -0.6398  0.2820
 3993TIP3   OH233537   4.567   4.357   1.352  0.4718 -0.1005 -0.7713
 3993TIP3    H133538   4.505   4.290   1.383  1.2351 -1.3448 -1.8532
 3993TIP3    H233539   4.513   4.418   1.302 -0.0581 -0.5955 -0.8208
 3994TIP3   OH233540   6.015   0.771   1.841  0.3952  0.4509  0.4503
 3994TIP3    H133541   5.944   0.827   1.812  0.0743  0.4419  1.2134
 3994TIP3    H233542   6.034   0.715   1.765 -0.2642  0.5933  0.1796
 3995TIP3   OH233543   6.663   6.179   1.215  0.0342 -0.3115  0.6204
 3995TIP3    H133544   6.717   6.175   1.294  1.4944 -0.2020 -0.3270
 3995TIP3    H233545   6.617   6.095   1.213 -0.0578 -0.2884  1.6150
 3996TIP3   OH233546   6.622   3.682   7.751  0.4938  0.5533 -0.6736
 3996TIP3    H133547   6.637   3.774   7.733  1.3423  0.5517 -0.0658
 3996TIP3    H233548   6.550   3.681   7.815  0.0066  0.7499 -1.2152
 3997TIP3   OH233549   1.264   3.060   0.024  0.3293 -0.4001  0.3777
 3997TIP3    H133550   1.317   2.982   0.011  1.0582  0.4677 -2.8827
 3997TIP3    H233551   1.191   3.049  -0.037 -0.3746  0.8030  0.9665
 3998TIP3   OH233552   6.695   3.135   7.101 -0.1160 -0.3908  0.0308
 3998TIP3    H133553   6.791   3.127   7.103 -0.2538 -2.3092  1.6597
 3998TIP3    H233554   6.666   3.057   7.054 -0.9045 -0.0334 -0.0783
 3999TIP3   OH233555   1.943   4.120   1.897  0.4831 -0.0174 -0.0609
 3999TIP3    H133556   1.871   4.160   1.849  0.2623  0.3138  0.5388
 3999TIP3    H233557   1.903   4.088   1.979  0.7704 -0.9341 -0.2661
 4000TIP3   OH233558   0.419   0.062   2.712  0.2912  0.1929 -0.5450
 4000TIP3    H133559   0.403   0.115   2.790  3.1982  1.5740 -0.7687
 4000TIP3    H233560   0.363   0.102   2.645 -0.8946  0.1075  0.3546
 4001TIP3   OH233561   6.378   3.379   0.359 -0.2706 -0.2129 -0.4043
 4001TIP3    H133562   6.289   3.346   0.348 -0.0454 -0.8388 -0.4160
 4001TIP3    H233563   6.370   3.452   0.420 -0.6862 -0.7727  0.2192
 4002TIP3   OH233564   0.023   0.155   1.129 -0.2531 -0.0083 -0.1523
 4002TIP3    H133565  -0.059   0.120   1.094  0.0057 -0.8911  0.1015
 4002TIP3    H233566   0.021   0.132   1.222 -0.3082  1.1165  0.1485
 4003TIP3   OH233567   1.078   1.100   7.270  0.6551 -0.0584  0.2125
 4003TIP3    H133568   1.089   1.128   7.361 -0.5199  1.9184 -0.2064
 4003TIP3    H233569   1.150   1.039   7.256  1.6928  0.6433  2.0603
 4004TIP3   OH233570   3.233   0.010   0.733  0.2025 -0.0509  0.1334
 4004TIP3    H133571   3.287  -0.067   0.714 -1.4622 -1.4591  0.8743
 4004TIP3    H233572   3.185   0.027   0.651  0.2630 -0.0376  0.1004
 4005TIP3   OH233573   3.234   6.500   8.050  0.3089 -0.1010  0.5218
 4005TIP3    H133574   3.197   6.569   7.995  1.4251  0.4161  0.4111
 4005TIP3    H233575   3.310   6.468   8.002  1.2913  0.3510  1.7228
 4006TIP3   OH233576   0.946   1.862   0.807  0.5171  0.6888  0.1312
 4006TIP3    H133577   0.859   1.853   0.847  1.3620  1.4906  2.2757
 4006TIP3    H233578   0.944   1.800   0.733 -0.3805 -2.7582  2.7623
 4007TIP3   OH233579   3.849   0.283   7.920  0.1915 -0.2265 -0.2235
 4007TIP3    H133580   3.886   0.371   7.918 -1.3022  0.4398  0.0758
 4007TIP3    H233581   3.877   0.247   8.004 -1.6684  1.1399  1.0580
 4008TIP3   OH233582   5.785   4.138   0.430 -0.7261 -0.4627 -0.3994
 4008TIP3    H133583   5.823   4.143   0.517 -0.5312  0.3809 -0.5271
 4008TIP3    H233584   5.849   4.179   0.373 -0.5729 -1.5562 -1.0438
 4009TIP3   OH233585   2.908   2.422   7.389 -0.3092  0.3833 -0.2066
 4009TIP3    H133586   2.914   2.506   7.343  0.9793  1.0060  1.0145
 4009TIP3    H233587   2.982   2.423   7.450 -0.5406 -1.4567  0.1534
 4010TIP3   OH233588   6.524   3.487   1.335 -0.0043  0.5169 -0.5672
 4010TIP3    H133589   6.579   3.411   1.318 -1.5171 -0.6662 -0.3384
 4010TIP3    H233590   6.536   3.504   1.428 -0.8043 -0.3873 -0.2886
 4011TIP3   OH233591   6.617   6.843   8.058 -0.3150 -0.0620  0.4535
 4011TIP3    H133592   6.635   6.873   7.969  0.0523  0.1960  0.6132
 4011TIP3    H233593   6.565   6.913   8.097 -1.0062 -0.4513  0.2496
 4012TIP3   OH233594   0.603   2.866   1.852 -0.5130 -0.9036 -0.1187
 4012TIP3    H133595   0.518   2.848   1.812 -0.3785  0.2154 -0.9580
 4012TIP3    H233596   0.582   2.900   1.939 -0.8808 -1.4198  0.0029
 4013TIP3   OH233597   0.147   1.437   0.059 -0.3576 -0.3996 -0.2353
 4013TIP3    H133598   0.114   1.352   0.087  2.4528 -1.5533 -0.1361
 4013TIP3    H233599   0.182   1.477   0.139  1.8690 -0.9298 -0.8618
 4014TIP3   OH233600   3.099   1.447   0.082  0.2353 -0.1183  0.1565
 4014TIP3    H133601   3.053   1.440  -0.001 -1.5674 -0.4079  1.1286
 4014TIP3    H233602   3.166   1.378   0.078  0.9064  0.5689 -1.4436
 4015TIP3   OH233603   1.342   6.602   2.488  0.7396  0.3072 -0.7545
 4015TIP3    H133604   1.259   6.558   2.508  0.5836  0.7647 -0.3679
 4015TIP3    H233605   1.399   6.533   2.456  1.0534 -0.5203  1.4190
 4016TIP3   OH233606   2.615   5.023   6.607 -0.4740  0.2889 -0.1318
 4016TIP3    H133607   2.595   5.091   6.673 -1.5830 -0.2388  0.0937
 4016TIP3    H233608   2.539   5.024   6.548 -1.1324 -1.6143  0.6120
 4017TIP3   OH233609   6.700   2.695   0.833  0.8629  0.1765 -0.7987
 4017TIP3    H133610   6.755   2.618   0.823 -0.1499 -0.6429 -0.3543
 4017TIP3    H233611   6.752   2.768   0.800  1.7490 -0.7397 -1.4571
 4018TIP3   OH233612   6.761   3.400   0.661 -0.2030 -0.3560  0.5377
 4018TIP3    H133613   6.747   3.332   0.727 -0.3778 -0.4099  0.4453
 4018TIP3    H233614   6.705   3.472   0.691  1.6954  0.6380  1.9144
 4019TIP3   OH233615   0.897   1.081   2.481 -0.0976  0.1154 -0.4155
 4019TIP3    H133616   0.869   1.153   2.425 -2.6845  0.6194  1.3756
 4019TIP3    H233617   0.838   1.009   2.460  0.3675 -0.4279  0.0806
 4020TIP3   OH233618   3.695   3.610   0.188 -0.0748  0.1619 -0.2287
 4020TIP3    H133619   3.771   3.594   0.132 -0.6081  4.1190 -2.4133
 4020TIP3    H233620   3.728   3.664   0.259 -0.3920 -0.5081  0.4487
 4021TIP3   OH233621   0.152   1.647   7.777  0.5534  0.1695  0.5315
 4021TIP3    H133622   0.231   1.619   7.731 -0.3241  1.1552 -1.6999
 4021TIP3    H233623   0.082   1.591   7.743  0.0563  0.0857  1.6275
 4022TIP3   OH233624   6.437   3.714   1.536 -0.1932 -0.1215  0.7157
 4022TIP3    H133625   6.459   3.701   1.629 -0.0574 -0.7170  0.6054
 4022TIP3    H233626   6.346   3.686   1.529 -0.2336  0.0174  0.6878
 4023TIP3   OH233627   5.014   1.791   1.661 -0.2017  0.7870 -0.0639
 4023TIP3    H133628   5.103   1.827   1.661 -0.2546  0.9223  0.4653
 4023TIP3    H233629   4.960   1.862   1.626 -0.0129  0.4624 -1.0499
 4024TIP3   OH233630   1.780   3.584   2.739  0.3245  0.6985  0.0300
 4024TIP3    H133631   1.734   3.643   2.680  1.8918  0.3052 -1.6884
 4024TIP3    H233632   1.741   3.599   2.825 -1.2067  2.1773 -0.8846
 4025TIP3   OH233633   4.220   5.446   7.479  0.5418  0.1680 -0.2417
 4025TIP3    H133634   4.257   5.372   7.526 -0.2770  0.1524  0.4041
 4025TIP3    H233635   4.293   5.508   7.471  1.2707 -0.7472 -0.9172
 4026TIP3   OH233636   5.514   2.359   0.516  0.4683  0.0453 -0.9167
 4026TIP3    H133637   5.582   2.310   0.470 -0.0077 -2.0996  0.5020
 4026TIP3    H233638   5.475   2.295   0.576 -2.1553  1.4499 -0.9775
 4027TIP3   OH233639   6.673   4.420   7.788  0.4191 -0.5883  0.0409
 4027TIP3    H133640   6.743   4.420   7.854 -0.1200  1.2240  0.6786
 4027TIP3    H233641   6.606   4.363   7.826  1.0490 -1.4194 -0.0455
 4028TIP3   OH233642   6.137   2.670   8.212  0.0465  0.0089 -0.5389
 4028TIP3    H133643   6.152   2.599   8.149 -1.6727  0.4074 -1.4442
 4028TIP3    H233644   6.074   2.633   8.274 -0.2975  0.5154 -0.5910
 4029TIP3   OH233645   0.160   3.869   1.388  0.1426 -0.0360  0.5298
 4029TIP3    H133646   0.073   3.874   1.349  0.4684  0.2427 -0.1552
 4029TIP3    H233647   0.195   3.785   1.357 -0.4514 -0.8745  2.0096
 4030TIP3   OH233648   2.983   1.665   7.914 -0.3229 -0.4345  0.3617
 4030TIP3    H133649   2.998   1.758   7.897  0.3949 -0.2780  1.6221
 4030TIP3    H233650   3.067   1.624   7.895 -0.1033 -0.5379  1.4592
 4031TIP3   OH233651   3.693   1.160   7.642  0.3413 -0.1784 -0.3203
 4031TIP3    H133652   3.747   1.092   7.602  1.1775  0.9384 -1.1580
 4031TIP3    H233653   3.704   1.148   7.737  0.6506 -1.0440 -0.4601
 4032TIP3   OH233654   5.743   4.763   0.518 -0.0319  0.0521  0.3804
 4032TIP3    H133655   5.700   4.692   0.469  0.8587 -0.1534 -0.1217
 4032TIP3    H233656   5.820   4.722   0.557  1.1593  0.9730 -0.8832
 4033TIP3   OH233657   6.348   5.511   8.257 -0.4270  0.0164 -0.3416
 4033TIP3    H133658   6.332   5.478   8.346 -1.6777  0.0931 -0.5123
 4033TIP3    H233659   6.409   5.584   8.269 -0.7293  0.1492  0.4939
 4034TIP3   OH233660   3.188   1.535   2.904  0.2269  0.1438 -0.2936
 4034TIP3    H133661   3.097   1.516   2.923  0.0509  0.0986 -1.1227
 4034TIP3    H233662   3.237   1.491   2.973 -0.3505 -0.3103 -0.1676
 4035TIP3   OH233663   3.969   2.391   7.729 -0.7716 -0.3471 -0.5131
 4035TIP3    H133664   3.931   2.305   7.710 -0.1978 -0.9861  1.0357
 4035TIP3    H233665   4.062   2.382   7.708 -0.2508 -0.8751  1.7461
 4036TIP3   OH233666   2.110   0.510   1.841 -0.0530  0.0527  0.4705
 4036TIP3    H133667   2.096   0.523   1.747  2.1494  1.3983  0.2675
 4036TIP3    H233668   2.078   0.591   1.881  1.9694  0.8851  0.5060
 4037TIP3   OH233669   5.322   5.261   8.465  0.4199 -0.2188  0.4671
 4037TIP3    H133670   5.308   5.168   8.448 -1.6740  0.2233 -0.4590
 4037TIP3    H233671   5.277   5.277   8.548 -0.0379  0.1570  0.1482
 4038TIP3   OH233672   2.060   3.893   2.578 -0.1172  0.5220 -0.0945
 4038TIP3    H133673   2.051   3.919   2.669  1.1772  1.6285 -0.2539
 4038TIP3    H233674   2.064   3.976   2.530  1.4761  0.0197 -0.8965
 4039TIP3   OH233675   1.964   2.225   1.674 -0.3476 -0.5899  0.0795
 4039TIP3    H133676   1.969   2.175   1.755  1.1604  0.4544  0.6815
 4039TIP3    H233677   1.982   2.162   1.605 -1.8862 -1.5398  0.4991
 4040TIP3   OH233678   2.607   3.995   2.584 -0.7299 -0.7001 -0.3169
 4040TIP3    H133679   2.636   4.080   2.617  2.6449 -1.2009 -1.6910
 4040TIP3    H233680   2.530   3.974   2.638  0.5638  1.4798  2.6280
 4041TIP3   OH233681   6.530   2.391   0.145 -0.0490  0.3385 -0.1056
 4041TIP3    H133682   6.592   2.362   0.078  0.5449  0.4508  0.3830
 4041TIP3    H233683   6.480   2.461   0.102  0.4518  0.5382 -0.3695
 4042TIP3   OH233684   4.224   3.601   0.647  0.5659 -0.7058  0.2220
 4042TIP3    H133685   4.198   3.531   0.587  2.8000 -0.9724 -0.5155
 4042TIP3    H233686   4.197   3.682   0.603 -0.2384 -0.9963  0.1557
 4043TIP3   OH233687   4.230   6.172   0.134  0.8287  0.1520  0.2952
 4043TIP3    H133688   4.200   6.256   0.098 -2.1315 -0.9565 -0.0528
 4043TIP3    H233689   4.299   6.144   0.074  3.1230  3.0249  1.3536
 4044TIP3   OH233690   1.200   4.895   1.846  0.0353 -0.2434  0.1996
 4044TIP3    H133691   1.154   4.848   1.776 -0.5063  1.0564 -0.3442
 4044TIP3    H233692   1.290   4.862   1.841  0.1407  0.2075 -1.4782
 4045TIP3   OH233693   0.068   3.725   7.489  0.3004  0.4907  0.5684
 4045TIP3    H133694   0.002   3.794   7.499 -0.8043 -0.5038  0.4558
 4045TIP3    H233695   0.032   3.651   7.538 -0.1641 -1.0589 -1.9294
 4046TIP3   OH233696   6.115   5.924   8.415  0.0092  0.4701  0.5353
 4046TIP3    H133697   6.161   6.005   8.392 -0.8863  0.6305 -0.8119
 4046TIP3    H233698   6.022   5.946   8.408 -0.2582 -0.9756 -1.0429
 4047TIP3   OH233699   2.791   2.439   0.670 -0.2578  0.4384  0.3562
 4047TIP3    H133700   2.872   2.468   0.628 -1.3805  0.7556 -1.7145
 4047TIP3    H233701   2.739   2.519   0.678 -1.4098 -0.1462 -0.8461
 4048TIP3   OH233702   4.969   1.429   8.563  0.2270 -0.4552  0.1661
 4048TIP3    H133703   5.041   1.379   8.525 -0.2629 -1.1084  0.0782
 4048TIP3    H233704   4.929   1.474   8.489  0.1235 -0.6334  0.1135
 4049TIP3   OH233705   2.726   5.788   8.561  0.2789  0.1328 -0.3229
 4049TIP3    H133706   2.783   5.860   8.536  0.7120  2.1162  5.0669
 4049TIP3    H233707   2.637   5.822   8.552  0.3664  0.3609 -0.3214
 4050TIP3   OH233708   0.875   5.663   1.772  0.5283 -0.6920 -0.1026
 4050TIP3    H133709   0.847   5.641   1.861  0.6693  1.9822  0.6840
 4050TIP3    H233710   0.946   5.725   1.784 -0.8495  1.4154 -2.0227
 4051TIP3   OH233711   0.204   6.527   2.063  0.2773  0.0079  0.1850
 4051TIP3    H133712   0.266   6.574   2.007  1.2504 -1.6562 -0.2064
 4051TIP3    H233713   0.174   6.592   2.126  1.4717  1.1692 -0.4050
 4052TIP3   OH233714   5.359   4.129   1.480  0.4145 -0.5387  0.0572
 4052TIP3    H133715   5.264   4.118   1.471  0.6052 -0.7691 -2.0750
 4052TIP3    H233716   5.376   4.217   1.445  0.8582  0.1428  1.8505
 4053TIP3   OH233717   2.525   3.635   2.656 -0.4131  0.0266  0.0643
 4053TIP3    H133718   2.480   3.717   2.676 -1.6776 -0.6095 -0.0602
 4053TIP3    H233719   2.616   3.661   2.637 -0.8094  1.3980 -0.0556
 4054TIP3   OH233720   5.733   5.594   2.389  0.0531 -0.1465 -0.1917
 4054TIP3    H133721   5.675   5.558   2.456 -0.3390 -0.6056 -0.7679
 4054TIP3    H233722   5.786   5.659   2.436  0.0033 -0.6821  0.6267
 4055TIP3   OH233723   3.598   6.205   1.119 -0.5476  0.1472 -0.0239
 4055TIP3    H133724   3.603   6.238   1.208  0.9750  1.2125 -0.4581
 4055TIP3    H233725   3.588   6.110   1.129 -1.5351  0.3642  1.2526
 4056TIP3   OH233726   1.080   5.624   3.005  0.4828  0.4403 -0.0776
 4056TIP3    H133727   1.062   5.531   2.995  0.5757 -0.0682  3.1336
 4056TIP3    H233728   1.175   5.632   2.994  0.6257 -0.0717  0.7207
 4057TIP3   OH233729   5.718   3.785   1.078 -0.1489  0.1374  0.4334
 4057TIP3    H133730   5.716   3.880   1.094 -0.8152  0.0786  0.7082
 4057TIP3    H233731   5.730   3.746   1.165  0.1281 -0.0365  0.3201
 4058TIP3   OH233732   5.936   1.292   6.865  0.0739 -0.4197 -0.2487
 4058TIP3    H133733   5.902   1.314   6.779 -1.4939 -1.6554 -0.0111
 4058TIP3    H233734   5.913   1.199   6.876  0.3246 -0.3104  1.4395
 4059TIP3   OH233735   6.898   6.688   1.967  0.0839 -0.2683 -0.5523
 4059TIP3    H133736   6.929   6.740   2.041  1.5262 -0.3462 -1.0724
 4059TIP3    H233737   6.938   6.729   1.891 -1.2784 -0.2668 -1.2971
 4060TIP3   OH233738   0.828   2.173   2.230  0.2352 -0.5260 -0.1152
 4060TIP3    H133739   0.797   2.136   2.312  0.8371  0.2244  0.4671
 4060TIP3    H233740   0.749   2.204   2.186  0.0605  1.0356  1.1799
 4061TIP3   OH233741   4.937   4.233   0.841 -0.7246 -0.1260  0.5155
 4061TIP3    H133742   5.023   4.262   0.873  0.5362 -1.7079 -1.2157
 4061TIP3    H233743   4.894   4.313   0.811  1.4679  0.4126 -1.5013
 4062TIP3   OH233744   4.423   0.845   0.165  0.3662  0.0683  0.0205
 4062TIP3    H133745   4.515   0.869   0.158  0.5419  0.1067  1.8768
 4062TIP3    H233746   4.386   0.909   0.226 -0.3461 -1.2864  1.0585
 4063TIP3   OH233747   1.146   3.519   0.617 -0.3878 -0.1223 -0.5368
 4063TIP3    H133748   1.197   3.589   0.658 -1.6538  0.6039 -0.1616
 4063TIP3    H233749   1.147   3.540   0.524 -0.3476  0.1100 -0.4833
 4064TIP3   OH233750   3.839   3.750   0.364 -0.3142  0.0039  0.1113
 4064TIP3    H133751   3.843   3.822   0.301  2.1265  1.1224  1.3751
 4064TIP3    H233752   3.830   3.794   0.449 -0.6402 -1.2978  0.7739
 4065TIP3   OH233753   3.509   4.178   0.519  0.2295  0.2179  0.7470
 4065TIP3    H133754   3.568   4.252   0.514  0.9643 -0.4496 -1.4012
 4065TIP3    H233755   3.439   4.207   0.578  0.3082  2.7469 -0.2819
 4066TIP3   OH233756   2.492   5.075   7.086 -0.3023 -0.3830  0.4203
 4066TIP3    H133757   2.420   5.014   7.069  1.2472 -2.0874 -0.4144
 4066TIP3    H233758   2.545   5.031   7.152  0.2999  0.5825  0.5931
 4067TIP3   OH233759   0.644   2.448   1.937 -0.1731 -0.2394  0.4259
 4067TIP3    H133760   0.612   2.531   1.902  0.7321  0.0853  0.3656
 4067TIP3    H233761   0.567   2.409   1.979 -0.6973  0.4432  0.1185
 4068TIP3   OH233762   2.251   6.657   1.319 -0.1110  0.0401  0.1655
 4068TIP3    H133763   2.274   6.748   1.296  0.0660 -0.3809 -1.4195
 4068TIP3    H233764   2.159   6.661   1.343 -0.4568  0.4517 -1.1510
 4069TIP3   OH233765   5.427   5.041   7.872 -0.5176  0.0424  0.0990
 4069TIP3    H133766   5.378   4.960   7.883  0.2868 -0.4698 -0.0621
 4069TIP3    H233767   5.518   5.014   7.860 -0.2458  0.9600 -0.0350
 4070TIP3   OH233768   1.929   1.926   7.829  0.2448 -0.0303 -0.3347
 4070TIP3    H133769   1.939   1.842   7.874  0.8791 -0.3461 -1.0386
 4070TIP3    H233770   1.859   1.912   7.766 -1.4765  0.7638  1.3173
 4071TIP3   OH233771   3.584   1.942   1.571  0.1849  0.5269 -0.1499
 4071TIP3    H133772   3.556   2.031   1.590 -0.2139  0.2236  0.7188
 4071TIP3    H233773   3.514   1.907   1.515 -0.3528  0.3186  0.6384
 4072TIP3   OH233774   0.535   5.749   0.414 -0.4380  0.1464  0.2832
 4072TIP3    H133775   0.540   5.707   0.328  0.1600 -0.3845  0.5691
 4072TIP3    H233776   0.524   5.842   0.395  1.7451  0.3245 -0.4082
 4073TIP3   OH233777   5.070   0.966   0.855 -0.1118  0.0373 -0.5127
 4073TIP3    H133778   5.008   0.936   0.921 -0.0556 -0.3935 -0.6548
 4073TIP3    H233779   5.138   0.898   0.852  1.3284  1.3486  0.9149
 4074TIP3   OH233780   0.596   1.346   6.932 -0.3281  0.8846  0.6000
 4074TIP3    H133781   0.634   1.324   6.847  0.6299  0.6671  1.0803
 4074TIP3    H233782   0.584   1.441   6.928 -1.3914  0.7471 -0.2074
 4075TIP3   OH233783   4.845   4.163   7.724 -0.1006 -0.1227 -0.1774
 4075TIP3    H133784   4.772   4.179   7.665 -0.9081 -0.5722  0.6792
 4075TIP3    H233785   4.908   4.114   7.671  0.2974  1.5807 -1.3879
 4076TIP3   OH233786   2.390   1.466   2.446 -0.4302 -0.0354  0.1689
 4076TIP3    H133787   2.359   1.557   2.444  1.1221  0.5391  0.4444
 4076TIP3    H233788   2.388   1.443   2.539  1.5456  0.6241  0.4157
 4077TIP3   OH233789   3.669   0.791   2.904 -0.0809  0.3980 -0.4744
 4077TIP3    H133790   3.731   0.718   2.906  1.0314  1.3258  0.8581
 4077TIP3    H233791   3.642   0.802   2.995 -0.2841  1.6017 -0.6566
 4078TIP3   OH233792   1.602   6.875   7.558 -0.0951  0.2448  0.0600
 4078TIP3    H133793   1.538   6.946   7.550 -0.3082 -0.0478 -0.9277
 4078TIP3    H233794   1.549   6.797   7.572  0.1622  0.3448  1.7507
 4079TIP3   OH233795   3.018   5.854   0.489 -0.3453 -0.0650  0.4017
 4079TIP3    H133796   3.094   5.818   0.536  0.5488 -0.5204 -1.2949
 4079TIP3    H233797   2.972   5.777   0.456  0.1595  0.2357 -1.1003
 4080TIP3   OH233798   6.495   1.128   6.874  0.3284  0.0772 -0.2278
 4080TIP3    H133799   6.515   1.117   6.967  2.0284  0.5902 -0.4984
 4080TIP3    H233800   6.400   1.127   6.870  0.1951  0.7329  1.6156
 4081TIP3   OH233801   2.866   1.232   1.904 -0.0999  0.1345 -0.7375
 4081TIP3    H133802   2.924   1.166   1.940 -1.4400 -0.8138 -0.2330
 4081TIP3    H233803   2.865   1.302   1.969  0.7986  0.3711 -0.9622
 4082TIP3   OH233804   0.699   3.167   2.023 -0.5090 -0.2340  0.3511
 4082TIP3    H133805   0.636   3.238   2.033 -0.7463  0.0054 -2.2556
 4082TIP3    H233806   0.644   3.089   2.012 -0.4343 -0.0449 -1.7767
 4083TIP3   OH233807   0.804   2.355   6.720 -0.1492 -0.3337 -0.3009
 4083TIP3    H133808   0.726   2.349   6.665 -0.0693  0.9749 -0.5846
 4083TIP3    H233809   0.864   2.413   6.672  0.4919 -0.3063  0.4984
 4084TIP3   OH233810   0.361   1.630   8.220  0.0421 -0.5973  0.4741
 4084TIP3    H133811   0.416   1.581   8.159 -0.3474 -1.5302  0.8635
 4084TIP3    H233812   0.384   1.595   8.307 -0.0215  0.1220  0.7912
 4085TIP3   OH233813   5.027   6.284   3.122 -0.2451  0.1873 -0.0006
 4085TIP3    H133814   5.021   6.320   3.211  0.6950 -0.0194  0.1631
 4085TIP3    H233815   5.097   6.219   3.128  1.5715  1.8683 -1.4179
 4086TIP3   OH233816   0.948   2.442   8.467  0.2142 -0.1162 -0.3098
 4086TIP3    H133817   0.992   2.526   8.481 -2.0345  0.7515  2.4911
 4086TIP3    H233818   0.904   2.424   8.550 -0.1880 -3.6396 -1.1411
 4087TIP3   OH233819   0.386   4.638   1.172 -0.1225  0.0479 -0.1906
 4087TIP3    H133820   0.329   4.706   1.207  0.5412 -0.0256  1.1117
 4087TIP3    H233821   0.472   4.679   1.168 -0.2625  0.2700 -2.4567
 4088TIP3   OH233822   6.242   5.343   8.065 -0.2598 -0.2888 -0.6146
 4088TIP3    H133823   6.165   5.385   8.026  0.3903  1.9744  0.3807
 4088TIP3    H233824   6.279   5.409   8.123  1.7354 -1.7598 -0.0860
 4089TIP3   OH233825   0.320   1.365   7.836 -0.5710  0.1050 -0.0617
 4089TIP3    H133826   0.341   1.398   7.749  2.4312  0.1157  0.5766
 4089TIP3    H233827   0.316   1.443   7.891 -2.1572  0.0727 -0.0911
 4090TIP3   OH233828   4.702   6.857   7.470 -1.2532 -0.6256 -0.1008
 4090TIP3    H133829   4.774   6.920   7.476  0.8473 -2.9015 -0.0189
 4090TIP3    H233830   4.624   6.907   7.497  0.6285  1.3640  2.0707
 4091TIP3   OH233831   0.915   1.903   1.346  0.0567  0.2675 -0.4569
 4091TIP3    H133832   0.965   1.945   1.415 -0.1370  1.3679 -0.9540
 4091TIP3    H233833   0.826   1.898   1.380 -0.1708  1.3687 -0.8214
 4092TIP3   OH233834   2.289   3.832   2.025 -0.4408 -0.4455 -0.3940
 4092TIP3    H133835   2.351   3.815   2.097 -0.6638 -2.6883 -0.6607
 4092TIP3    H233836   2.250   3.917   2.047  1.6432  0.3422  0.5478
 4093TIP3   OH233837   2.212   2.703   2.339  0.3638 -0.9970 -0.1044
 4093TIP3    H133838   2.207   2.778   2.398 -0.3429 -0.9843 -0.1702
 4093TIP3    H233839   2.250   2.633   2.392  0.3053 -0.8102  0.1859
 4094TIP3   OH233840   6.773   3.167   2.755 -0.0929  0.3131  0.3091
 4094TIP3    H133841   6.722   3.110   2.698 -0.2693 -0.6761  1.4217
 4094TIP3    H233842   6.760   3.131   2.843  1.2652  0.9681  0.8080
 4095TIP3   OH233843   0.047   5.594   2.256  0.9998  0.1208  0.5558
 4095TIP3    H133844   0.081   5.542   2.183 -1.2884  1.6981 -1.8307
 4095TIP3    H233845   0.019   5.530   2.320  0.2557 -1.5418 -1.3336
 4096TIP3   OH233846   1.841   5.608   2.441  0.2120 -0.2903 -0.1122
 4096TIP3    H133847   1.889   5.671   2.387  0.4028 -0.3541 -0.0181
 4096TIP3    H233848   1.908   5.570   2.498  0.1562 -0.8025 -0.3818
 4097TIP3   OH233849   4.462   0.071   7.421 -0.8837 -0.0852 -0.2326
 4097TIP3    H133850   4.425  -0.016   7.431 -2.5504  0.2542 -2.5903
 4097TIP3    H233851   4.398   0.130   7.461  0.1780  0.1376  1.2455
 4098TIP3   OH233852   6.650   3.835   1.409 -0.1125  0.6820 -0.5652
 4098TIP3    H133853   6.566   3.790   1.412  0.0849  0.3103 -0.5299
 4098TIP3    H233854   6.694   3.810   1.490  0.5084 -0.0759 -1.1226
 4099TIP3   OH233855   0.071   1.525   1.516 -0.0127 -0.5460 -0.0889
 4099TIP3    H133856   0.150   1.545   1.465 -1.5299  0.2242 -2.2833
 4099TIP3    H233857   0.051   1.607   1.562  0.4145 -0.7287  0.4339
 4100TIP3   OH233858   4.378   3.874   7.649 -0.1102 -0.0385 -0.7407
 4100TIP3    H133859   4.335   3.956   7.624 -0.5849 -0.6342 -1.8909
 4100TIP3    H233860   4.323   3.839   7.719 -0.6396 -0.0376 -1.1550
 4101TIP3   OH233861   0.149   3.987   8.025 -0.8488  0.7429  0.4993
 4101TIP3    H133862   0.229   3.953   7.985  0.1391  2.3513  1.0042
 4101TIP3    H233863   0.148   3.948   8.113 -0.9538  0.2571  0.2867
 4102TIP3   OH233864   2.166   0.156   1.866  0.3247  0.7824  0.3005
 4102TIP3    H133865   2.131   0.214   1.934  1.4295  2.0070 -0.1392
 4102TIP3    H233866   2.209   0.215   1.804  1.4858 -0.5067 -0.1663
 4103TIP3   OH233867   5.618   2.293   7.920 -0.3092 -0.3090  0.2738
 4103TIP3    H133868   5.567   2.220   7.956 -0.8539 -0.0252  0.0916
 4103TIP3    H233869   5.609   2.284   7.825  0.7183 -0.7691  0.2070
 4104TIP3   OH233870   5.061   3.872   8.240  0.3122 -0.0066 -0.0460
 4104TIP3    H133871   5.059   3.891   8.334 -0.0936  0.2264 -0.0962
 4104TIP3    H233872   5.127   3.932   8.205  1.6111 -1.1976  0.3149
 4105TIP3   OH233873   1.129   6.391   1.949 -0.0646 -0.4875 -0.0763
 4105TIP3    H133874   1.178   6.363   1.872 -1.5507  0.6620 -1.4992
 4105TIP3    H233875   1.076   6.314   1.973  0.6419 -0.9533  0.0075
 4106TIP3   OH233876   2.764   0.137   1.553 -0.1211  0.4338 -0.2693
 4106TIP3    H133877   2.752   0.144   1.458  0.8281  0.4322 -0.3923
 4106TIP3    H233878   2.800   0.049   1.566  0.8523  0.8561 -0.0237
 4107TIP3   OH233879   6.397   5.838   7.592  0.4574  0.1979 -0.4856
 4107TIP3    H133880   6.379   5.754   7.548  2.1069 -0.3762 -0.1209
 4107TIP3    H233881   6.340   5.838   7.668 -0.4739 -0.0155 -1.1657
 4108TIP3   OH233882   4.568   4.331   7.822  0.2800 -0.2980 -0.7234
 4108TIP3    H133883   4.598   4.361   7.908  0.5133 -0.3668 -0.7798
 4108TIP3    H233884   4.501   4.265   7.841  0.8378 -0.8314 -0.5876
 4109TIP3   OH233885   6.038   2.648   0.229  0.2818 -1.0385 -0.1883
 4109TIP3    H133886   6.084   2.564   0.235  0.0803 -1.3310 -2.1343
 4109TIP3    H233887   6.009   2.653   0.138 -1.9498 -0.0159  0.5009
 4110TIP3   OH233888   1.670   2.045   1.502  0.2537  0.4156  0.1258
 4110TIP3    H133889   1.764   2.038   1.487  0.0817 -1.3441 -0.4535
 4110TIP3    H233890   1.632   2.051   1.414 -0.2070  0.1635  0.3022
 4111TIP3   OH233891   6.283   0.932   0.156 -0.1051  0.2456 -0.1467
 4111TIP3    H133892   6.347   0.906   0.222 -1.0076  0.1710  0.7236
 4111TIP3    H233893   6.262   0.851   0.109  0.0450  0.1724 -0.0872
 4112TIP3   OH233894   4.810   6.039   2.202 -0.2150 -0.1634 -0.4541
 4112TIP3    H133895   4.735   6.095   2.186  0.1238  1.0010  1.6808
 4112TIP3    H233896   4.879   6.098   2.232  1.1843 -1.3566 -1.1386
 4113TIP3   OH233897   0.812   3.260   1.778 -0.6751  0.1724 -0.0671
 4113TIP3    H133898   0.808   3.246   1.873  0.4659  1.2071  0.1592
 4113TIP3    H233899   0.856   3.182   1.744 -0.0204  0.3418  0.3916
 4114TIP3   OH233900   3.016   1.983   0.853 -0.7255 -0.1802 -0.0269
 4114TIP3    H133901   2.947   2.041   0.822 -0.4862 -0.4496 -1.0958
 4114TIP3    H233902   2.977   1.896   0.853 -0.5705 -0.2509 -0.0658
 4115TIP3   OH233903   5.032   5.572   7.460 -0.2513  0.3406  0.1226
 4115TIP3    H133904   5.091   5.533   7.524 -0.8581 -0.2180  0.3559
 4115TIP3    H233905   5.015   5.502   7.397 -0.0016  0.7549 -0.4129
 4116TIP3   OH233906   2.574   2.381   8.208  0.0232 -0.3308  0.2542
 4116TIP3    H133907   2.563   2.318   8.279 -0.4613  0.0790  0.5539
 4116TIP3    H233908   2.496   2.438   8.214 -0.3943 -0.7312 -1.0618
 4117TIP3   OH233909   3.887   5.624   8.161 -0.2812  0.2358 -0.1937
 4117TIP3    H133910   3.920   5.613   8.250  3.5600  0.5548 -1.4171
 4117TIP3    H233911   3.824   5.696   8.168  2.7342  2.9521  1.7412
 4118TIP3   OH233912   2.930   4.669   1.460  0.3576  0.2345 -0.1416
 4118TIP3    H133913   2.946   4.654   1.553 -0.4865  1.7420  0.2848
 4118TIP3    H233914   2.878   4.750   1.458 -1.9116 -1.1732 -1.7438
 4119TIP3   OH233915   3.524   4.842   2.693  0.0192 -0.0330  0.1147
 4119TIP3    H133916   3.478   4.916   2.731  1.7347  1.3532 -0.3645
 4119TIP3    H233917   3.479   4.765   2.728  0.1551  1.1644  3.2083
 4120TIP3   OH233918   2.512   2.012   2.764  0.0807 -0.1525  0.3199
 4120TIP3    H133919   2.601   1.978   2.754  0.0565 -0.3855  0.8365
 4120TIP3    H233920   2.457   1.933   2.768  0.0887 -0.1219  2.1467
 4121TIP3   OH233921   3.624   4.718   8.487 -0.1981  0.4166 -0.0823
 4121TIP3    H133922   3.663   4.797   8.523  0.7482 -0.7255  1.5499
 4121TIP3    H233923   3.562   4.689   8.555 -0.1804 -0.4865 -0.4351
 4122TIP3   OH233924   5.227   3.866   7.934 -0.5894  0.0246 -0.4950
 4122TIP3    H133925   5.245   3.913   7.853 -1.5193  0.4330 -0.4696
 4122TIP3    H233926   5.133   3.850   7.933 -0.5448 -0.3553  0.2997
 4123TIP3   OH233927   5.622   3.356   8.427  0.0569 -0.0804 -0.1892
 4123TIP3    H133928   5.595   3.447   8.436 -0.9890 -0.0379 -2.8142
 4123TIP3    H233929   5.717   3.358   8.432 -0.0014  0.9723  0.8953
 4124TIP3   OH233930   1.177   5.409   3.245  0.6083 -0.1535  0.6752
 4124TIP3    H133931   1.243   5.352   3.206  0.6350  0.3295 -0.0069
 4124TIP3    H233932   1.162   5.372   3.332  3.1015  0.7757  1.5892
 4125TIP3   OH233933   0.894   6.129   1.384 -0.1449  0.5307  0.3456
 4125TIP3    H133934   0.890   6.061   1.317 -1.1104  1.2421 -0.3507
 4125TIP3    H233935   0.820   6.109   1.442  0.6288 -0.0260  1.1513
 4126TIP3   OH233936   0.239   4.743   0.899  0.5854 -0.0312 -0.1671
 4126TIP3    H133937   0.282   4.710   0.820  0.3807 -0.2427 -0.1887
 4126TIP3    H233938   0.297   4.715   0.970  0.2262 -0.7581 -0.1529
 4127TIP3   OH233939   3.665   0.072   2.101 -0.7444 -0.1574  0.1843
 4127TIP3    H133940   3.717  -0.003   2.130  1.2614  0.0104 -2.6400
 4127TIP3    H233941   3.590   0.033   2.056 -1.0006 -0.4008  0.7988
 4128TIP3   OH233942   5.309   5.694   2.315  0.3022  0.1800 -0.2489
 4128TIP3    H133943   5.269   5.675   2.230  0.9227 -0.8378 -0.3213
 4128TIP3    H233944   5.295   5.616   2.367  0.6967  0.4611  0.2927
 4129TIP3   OH233945   5.639   1.053   0.033  0.3200  0.5233  0.4473
 4129TIP3    H133946   5.722   1.083  -0.004  0.4048  0.0947  0.2786
 4129TIP3    H233947   5.573   1.083  -0.030  0.5670 -1.2526 -0.7257
 4130TIP3   OH233948   4.948   5.327   6.984 -0.3546  0.0061 -0.4708
 4130TIP3    H133949   4.970   5.278   6.906 -1.1361 -0.6304 -0.3051
 4130TIP3    H233950   4.874   5.279   7.023  0.5075 -0.1533  1.0719
 4131TIP3   OH233951   0.153   4.880   2.740  0.2339 -0.1372 -0.4832
 4131TIP3    H133952   0.127   4.835   2.659 -0.5077 -1.1606  0.3000
 4131TIP3    H233953   0.126   4.821   2.810  0.1984  1.0626  0.5529
 4132TIP3   OH233954   5.860   1.071   1.304 -0.5715  0.1740 -0.4444
 4132TIP3    H133955   5.847   1.073   1.209 -0.2756  1.6957 -0.4631
 4132TIP3    H233956   5.944   1.113   1.319 -1.7721  2.3534  0.6609
 4133TIP3   OH233957   3.559   1.583   1.821  0.5878 -0.0191  0.3688
 4133TIP3    H133958   3.655   1.587   1.821  0.6805 -1.7557  0.4680
 4133TIP3    H233959   3.532   1.666   1.861  1.9857  1.1289 -0.9266
 4134TIP3   OH233960   5.343   0.674   0.179  0.4236  0.4068  0.3660
 4134TIP3    H133961   5.312   0.765   0.173 -0.2021  0.2107  0.4966
 4134TIP3    H233962   5.436   0.679   0.160  0.2924  1.0111 -0.1627
 4135TIP3   OH233963   5.975   1.261   0.225  0.2775 -0.1211 -0.3741
 4135TIP3    H133964   6.038   1.290   0.159 -0.7094  2.1406 -0.4224
 4135TIP3    H233965   5.890   1.284   0.188 -0.3883 -0.2772  1.0008
 4136TIP3   OH233966   2.015   1.158   7.798 -0.7721 -0.2619  0.4832
 4136TIP3    H133967   1.936   1.210   7.812  0.4181  1.4738  1.1028
 4136TIP3    H233968   2.087   1.221   7.806  0.6911 -1.7936  0.0173
 4137TIP3   OH233969   0.333   3.418   0.610 -0.0939 -0.0689 -1.0994
 4137TIP3    H133970   0.424   3.424   0.580 -0.0643  1.0662 -0.8212
 4137TIP3    H233971   0.283   3.469   0.546 -0.2113  1.2344 -0.0148
 4138TIP3   OH233972   4.592   1.063   1.119  0.2788 -0.8698 -0.0269
 4138TIP3    H133973   4.504   1.029   1.137  0.5095 -0.4093  2.2699
 4138TIP3    H233974   4.650   0.988   1.135  0.4456 -0.6242  0.5349
 4139TIP3   OH233975   0.286   0.492   0.979 -0.4898 -0.2939  0.1974
 4139TIP3    H133976   0.254   0.416   1.027 -0.9562 -0.7679 -0.8459
 4139TIP3    H233977   0.209   0.527   0.934 -0.1100  0.2943 -0.0068
 4140TIP3   OH233978   5.406   5.683   0.421 -0.1474 -0.2407  0.5811
 4140TIP3    H133979   5.338   5.706   0.357 -0.9174 -2.1926  0.6059
 4140TIP3    H233980   5.488   5.689   0.372 -0.5038  0.5282  0.0665
 4141TIP3   OH233981   3.712   3.654   2.965 -0.1337 -0.1801  0.0670
 4141TIP3    H133982   3.692   3.744   2.991 -1.4252 -0.5071  0.2730
 4141TIP3    H233983   3.807   3.654   2.952 -0.1115  1.2260 -0.0148
 4142TIP3   OH233984   5.888   6.068   2.743  0.0863  0.3521  0.1405
 4142TIP3    H133985   5.887   6.102   2.832  0.4235  0.9374 -0.0763
 4142TIP3    H233986   5.807   6.017   2.736  0.6047 -0.6480  1.1323
 4143TIP3   OH233987   6.215   6.808   1.476  0.1714 -0.2184 -0.0289
 4143TIP3    H133988   6.155   6.782   1.547  3.2423  0.5427  3.1546
 4143TIP3    H233989   6.250   6.726   1.443 -1.9348 -0.6324 -1.4161
 4144TIP3   OH233990   1.415   5.975   7.839 -0.0735  0.1323 -0.3081
 4144TIP3    H133991   1.440   5.895   7.885  5.2018  2.1896  1.1813
 4144TIP3    H233992   1.402   5.947   7.748  0.9278 -2.5465  0.2728
 4145TIP3   OH233993   4.211   5.152   1.807  0.2491 -0.1458 -0.7153
 4145TIP3    H133994   4.278   5.173   1.741 -0.7550  1.6786 -1.2191
 4145TIP3    H233995   4.130   5.186   1.770 -0.3684  0.8939  1.4139
 4146TIP3   OH233996   6.073   4.815   8.239  0.4284  0.3430  0.1964
 4146TIP3    H133997   6.007   4.750   8.217 -2.2329  2.4066  1.4585
 4146TIP3    H233998   6.150   4.791   8.188 -1.7057 -1.4884 -2.3705
 4147TIP3   OH233999   5.459   0.063   1.819  0.6134 -0.6641 -0.1472
 4147TIP3    H134000   5.436   0.073   1.727 -2.1328 -0.2945  0.4696
 4147TIP3    H234001   5.422   0.141   1.861  1.1828 -1.1606  1.3561
 4148TIP3   OH234002   4.030   0.282   0.600  0.4200 -0.1626  0.0446
 4148TIP3    H134003   4.109   0.315   0.642  0.4425  0.5885 -0.5449
 4148TIP3    H234004   4.055   0.271   0.508  0.0338 -0.5712 -0.0106
 4149TIP3   OH234005   1.787   3.003   7.278 -0.3217 -0.0300 -0.1793
 4149TIP3    H134006   1.760   2.975   7.191 -0.8102 -0.1500  0.0079
 4149TIP3    H234007   1.868   3.052   7.263 -0.7159  0.4555 -0.7640
 4150TIP3   OH234008   0.927   4.567   2.203 -0.1493  0.1709  0.0598
 4150TIP3    H134009   1.022   4.560   2.196 -0.2723 -1.1744 -0.5657
 4150TIP3    H234010   0.910   4.574   2.297  0.5219 -0.3831  0.2261
 4151TIP3   OH234011   0.230   3.398   0.852  0.0059  0.4368  0.0587
 4151TIP3    H134012   0.266   3.388   0.764  0.0090  1.1789 -0.0274
 4151TIP3    H234013   0.307   3.409   0.908 -0.0537  1.4502 -0.0490
 4152TIP3   OH234014   4.056   2.500   1.819  0.1401 -0.1526  0.0009
 4152TIP3    H134015   4.095   2.413   1.813  3.6069  0.8969  3.2200
 4152TIP3    H234016   4.095   2.548   1.746 -1.3776 -1.0226 -1.4657
 4153TIP3   OH234017   0.619   0.418   1.953  0.0514 -0.4672 -0.4777
 4153TIP3    H134018   0.545   0.366   1.985 -0.8101  0.4639 -0.9011
 4153TIP3    H234019   0.605   0.423   1.859  0.6157 -0.2080 -0.5478
 4154TIP3   OH234020   5.181   6.785   0.145  0.1747 -0.1978  0.1864
 4154TIP3    H134021   5.237   6.710   0.121  0.0867 -0.1087 -0.3142
 4154TIP3    H234022   5.108   6.746   0.192  0.6138 -0.3248  0.7694
 4155TIP3   OH234023   6.236   6.311   7.493 -0.1751 -0.5783  0.4181
 4155TIP3    H134024   6.238   6.360   7.411  0.8733  1.1245  1.4136
 4155TIP3    H234025   6.289   6.233   7.475 -0.1948 -0.3796 -0.6003
 4156TIP3   OH234026   3.367   0.686   8.536  0.1732  0.2494 -0.5098
 4156TIP3    H134027   3.323   0.744   8.474 -1.0091  0.7246  0.7172
 4156TIP3    H234028   3.343   0.720   8.622  0.2428 -1.4596  0.2356
 4157TIP3   OH234029   1.921   3.404   8.318  0.3491 -0.5147 -0.7524
 4157TIP3    H134030   1.967   3.480   8.353  1.4000 -0.1935 -2.6871
 4157TIP3    H234031   1.828   3.425   8.328  0.6314  0.4124 -0.0153
 4158TIP3   OH234032   1.337   5.532   1.239  0.1943 -0.2153 -0.0912
 4158TIP3    H134033   1.393   5.592   1.289 -3.4885  2.6694  1.0707
 4158TIP3    H234034   1.308   5.468   1.303  0.0887 -0.1193 -0.0439
 4159TIP3   OH234035   4.253   2.950   8.523 -0.0442 -0.1365  0.2565
 4159TIP3    H134036   4.189   2.979   8.588 -0.7271 -1.1030  0.0431
 4159TIP3    H234037   4.327   2.920   8.575  0.0597  0.5777  0.5269
 4160TIP3   OH234038   3.974   3.536   8.350  0.2476  0.2471 -0.0489
 4160TIP3    H134039   3.962   3.459   8.293  1.1084  0.5254 -0.6257
 4160TIP3    H234040   4.032   3.505   8.420 -2.0689 -0.5454  1.6306
 4161TIP3   OH234041   5.530   2.040   7.278 -0.7713 -0.3574 -0.0643
 4161TIP3    H134042   5.499   2.126   7.307  0.9599  0.9942 -1.9274
 4161TIP3    H234043   5.599   2.017   7.340 -1.7424 -0.8011  0.8808
 4162TIP3   OH234044   3.178   3.740   1.184  0.4738  0.5296  0.7102
 4162TIP3    H134045   3.263   3.768   1.150 -0.7341  0.3783 -2.8993
 4162TIP3    H234046   3.168   3.650   1.153 -1.9206  1.3254 -1.1661
 4163TIP3   OH234047   2.263   0.490   0.688 -0.2155 -0.3291  0.0711
 4163TIP3    H134048   2.183   0.526   0.727  0.6171 -0.4385  1.9694
 4163TIP3    H234049   2.299   0.433   0.756  1.4739 -0.3085 -0.7677
 4164TIP3   OH234050   5.762   0.879   0.841  0.1825 -0.0268 -0.2092
 4164TIP3    H134051   5.680   0.886   0.792 -0.2792 -0.2943  0.5054
 4164TIP3    H234052   5.830   0.883   0.774 -0.4555 -1.2400 -0.9699
 4165TIP3   OH234053   1.975   6.479   1.529  0.5099 -0.5942  0.0541
 4165TIP3    H134054   2.042   6.445   1.588  0.7586 -0.6043 -0.2315
 4165TIP3    H234055   1.893   6.471   1.578  0.6709 -0.9058  0.2724
 4166TIP3   OH234056   2.626   1.520   2.725  0.1785  0.2203  0.3733
 4166TIP3    H134057   2.633   1.540   2.818  0.5713 -0.4655  0.4955
 4166TIP3    H234058   2.577   1.438   2.722 -1.3502  1.1047 -0.1160
 4167TIP3   OH234059   6.139   1.329   0.017 -0.4651 -0.7032 -0.1807
 4167TIP3    H134060   6.126   1.300  -0.074 -2.8465  0.7437 -0.3865
 4167TIP3    H234061   6.149   1.424   0.012 -0.4092 -0.6205  1.0560
 4168TIP3   OH234062   3.360   6.378   0.827 -0.2790 -0.3361 -0.4656
 4168TIP3    H134063   3.325   6.461   0.859 -2.6521 -1.3586 -0.1993
 4168TIP3    H234064   3.353   6.385   0.732  1.1527  0.3885 -0.5458
 4169TIP3   OH234065   4.651   6.190   7.424  0.3201  0.5052 -0.1965
 4169TIP3    H134066   4.650   6.226   7.512 -1.0292 -0.2428  0.1139
 4169TIP3    H234067   4.562   6.201   7.392  0.4185 -0.5936 -0.8976
 4170TIP3   OH234068   1.879   3.486   8.002  0.2449 -0.3451  0.3467
 4170TIP3    H134069   1.904   3.400   8.035 -0.8257 -1.0978 -0.7096
 4170TIP3    H234070   1.797   3.471   7.955  0.0937  1.2338  0.0430
 4171TIP3   OH234071   2.036   1.970   7.489 -0.7777 -0.2026 -0.2636
 4171TIP3    H134072   2.066   1.881   7.505  0.6619  0.2191 -0.4512
 4171TIP3    H234073   1.948   1.960   7.455 -1.3446 -1.4663  1.4150
 4172TIP3   OH234074   6.837   6.118   2.493  0.1291  0.1553 -0.1709
 4172TIP3    H134075   6.888   6.067   2.556 -1.9361 -1.0996  0.5683
 4172TIP3    H234076   6.786   6.178   2.546  0.5174  1.1378 -0.8726
 4173TIP3   OH234077   5.246   5.292   7.212 -0.4767  0.2649  0.3262
 4173TIP3    H134078   5.265   5.228   7.143  1.0326  0.0133  0.9398
 4173TIP3    H234079   5.301   5.367   7.190 -1.6864  1.0875  0.0302
 4174TIP3   OH234080   4.405   3.883   0.226  0.3186 -0.7670  0.0787
 4174TIP3    H134081   4.328   3.926   0.189  0.3865 -0.0345  0.7551
 4174TIP3    H234082   4.369   3.811   0.279  0.1567 -1.0528 -0.4189
 4175TIP3   OH234083   3.562   3.036   1.756 -0.1852 -0.6225  0.4781
 4175TIP3    H134084   3.484   3.062   1.707 -0.1541 -0.3987  0.5491
 4175TIP3    H234085   3.581   2.947   1.725 -1.8256 -1.6189  2.1049
 4176TIP3   OH234086   6.797   4.408   0.401 -0.5240  0.0323 -0.2199
 4176TIP3    H134087   6.817   4.490   0.447 -0.5695 -0.1708  0.1731
 4176TIP3    H234088   6.786   4.344   0.472  0.4459 -0.5267 -0.5616
 4177TIP3   OH234089   0.199   3.034   8.440 -0.3184  0.0318 -0.1521
 4177TIP3    H134090   0.233   3.119   8.412 -0.3376 -0.1332 -0.6873
 4177TIP3    H234091   0.104   3.046   8.445 -0.1182  1.2615  3.8837
 4178TIP3   OH234092   1.313   0.782   0.889  0.0890 -0.2464 -0.0436
 4178TIP3    H134093   1.259   0.846   0.936  0.0652 -1.0379  1.0371
 4178TIP3    H234094   1.307   0.809   0.797  0.9616  1.9461  0.4787
 4179TIP3   OH234095   1.464   6.266   0.232 -0.2048  0.8896  0.0984
 4179TIP3    H134096   1.510   6.184   0.213  0.6621  1.0949  1.2329
 4179TIP3    H234097   1.372   6.245   0.216  0.0610 -0.1540 -0.1504
 4180TIP3   OH234098   6.707   5.476   2.942 -0.0300 -0.1938 -0.0238
 4180TIP3    H134099   6.732   5.563   2.974  0.4189 -0.1546 -0.4718
 4180TIP3    H234100   6.782   5.421   2.962 -0.5869 -0.6508  0.8966
 4181TIP3   OH234101   5.488   4.574   1.573  0.3124 -0.0623  0.2278
 4181TIP3    H134102   5.510   4.553   1.664 -0.7134  0.9214  0.7228
 4181TIP3    H234103   5.448   4.661   1.577 -1.3707 -0.7230 -0.9314
 4182TIP3   OH234104   2.780   5.690   1.301 -0.3078 -0.5446 -0.0512
 4182TIP3    H134105   2.828   5.617   1.263  0.6811 -0.1216  0.3388
 4182TIP3    H234106   2.806   5.766   1.249 -0.8727 -0.3685 -0.0865
 4183TIP3   OH234107   0.278   0.967   1.474  0.0538 -0.6028  0.1770
 4183TIP3    H134108   0.266   0.891   1.418  0.2442 -1.6254  1.4791
 4183TIP3    H234109   0.359   0.950   1.522  0.3247  0.6108  0.1915
 4184TIP3   OH234110   0.593   3.230   0.244  0.0339 -0.5191  0.2554
 4184TIP3    H134111   0.614   3.321   0.221  0.2467 -0.5803  0.2057
 4184TIP3    H234112   0.674   3.196   0.282  0.7328 -1.4174 -1.8939
 4185TIP3   OH234113   1.715   2.846   2.322  0.0300 -0.2464  0.0115
 4185TIP3    H134114   1.763   2.846   2.405 -1.3080  1.2323  0.8527
 4185TIP3    H234115   1.657   2.771   2.327 -1.5993  1.0174  1.4503
 4186TIP3   OH234116   4.354   4.123   7.532  0.1488 -0.3152 -0.0127
 4186TIP3    H134117   4.269   4.137   7.574 -0.2949 -0.4593 -0.8379
 4186TIP3    H234118   4.345   4.165   7.446  0.8518 -0.4736 -0.1644
 4187TIP3   OH234119   4.101   1.105   8.085  0.1765  0.4382 -0.6171
 4187TIP3    H134120   4.033   1.038   8.084  0.8251 -0.2449 -1.4203
 4187TIP3    H234121   4.179   1.060   8.054  1.4898  0.7183  2.0277
 4188TIP3   OH234122   1.823   3.424   1.944 -0.4997  0.2239  0.0949
 4188TIP3    H134123   1.764   3.360   1.984 -0.9782 -0.1257 -1.1025
 4188TIP3    H234124   1.897   3.372   1.912 -0.2082  0.4672  0.3692
 4189TIP3   OH234125   3.002   3.010   8.385  0.0430  0.1207 -0.4356
 4189TIP3    H134126   2.958   3.056   8.314  1.4561 -1.5371 -2.5304
 4189TIP3    H234127   3.017   2.922   8.351 -1.8020 -1.7323  3.0652
 4190TIP3   OH234128   6.829   5.270   2.273 -0.1123 -0.3766  0.0455
 4190TIP3    H134129   6.735   5.275   2.259  0.0228  0.4162 -0.6742
 4190TIP3    H234130   6.844   5.320   2.354 -0.2402  0.0986 -0.2186
 4191TIP3   OH234131   4.561   4.018   7.826  0.2864 -0.1496 -0.5532
 4191TIP3    H134132   4.605   4.063   7.753 -2.3303  1.0219 -1.5254
 4191TIP3    H234133   4.483   3.979   7.787 -0.7801 -0.1842  1.4681
 4192TIP3   OH234134   2.168   2.674   0.274  0.0369 -0.6713 -0.0530
 4192TIP3    H134135   2.139   2.628   0.195 -0.9179  1.0361 -0.7369
 4192TIP3    H234136   2.142   2.616   0.346 -2.3176 -0.6367 -0.8060
 4193TIP3   OH234137   4.636   1.096   7.947  0.3329  0.3647  0.5615
 4193TIP3    H134138   4.692   1.115   7.872 -0.4133 -1.2784 -0.4636
 4193TIP3    H234139   4.636   1.177   7.998  2.3762  0.9042 -0.1990
 4194TIP3   OH234140   1.701   5.655   1.944 -0.4111  0.2908  1.0242
 4194TIP3    H134141   1.613   5.688   1.932 -0.7641 -0.3390  1.7734
 4194TIP3    H234142   1.751   5.729   1.979 -0.1639  1.1840 -1.0287
 4195TIP3   OH234143   5.351   6.126   1.770  0.3742  0.4124  0.1060
 4195TIP3    H134144   5.429   6.090   1.813  0.7387  0.6561 -0.3429
 4195TIP3    H234145   5.320   6.194   1.830  0.1048 -0.1321  0.6080
 4196TIP3   OH234146   4.225   3.625   1.913  0.0752  0.0984  0.4654
 4196TIP3    H134147   4.255   3.590   1.997 -1.9735 -0.7736  0.8885
 4196TIP3    H234148   4.187   3.711   1.935  1.2406  0.7381  0.0909
 4197TIP3   OH234149   2.836   1.576   8.112 -0.0566  0.4151  0.2208
 4197TIP3    H134150   2.900   1.602   8.046  0.0862  0.2002  0.2721
 4197TIP3    H234151   2.767   1.531   8.063 -2.2275  4.0636 -0.4323
 4198TIP3   OH234152   3.604   6.813   7.230 -0.3463 -0.1197 -0.0775
 4198TIP3    H134153   3.642   6.725   7.238  0.8742  0.5422  2.4678
 4198TIP3    H234154   3.678   6.870   7.210 -0.9876  0.4702 -0.8369
 4199TIP3   OH234155   1.602   1.126   6.795 -0.5272 -0.1619  1.0673
 4199TIP3    H134156   1.594   1.043   6.842  0.9389 -0.6396  0.5136
 4199TIP3    H234157   1.663   1.108   6.724  0.8134  1.6831  1.6628
 4200TIP3   OH234158   0.365   1.178   0.866  0.2758 -0.6587  0.3304
 4200TIP3    H134159   0.416   1.149   0.941 -0.3964  0.7940  1.4059
 4200TIP3    H234160   0.303   1.106   0.851  0.4881 -1.0223  1.1036
 4201TIP3   OH234161   5.366   4.351   7.323  0.0866 -0.3679  0.3529
 4201TIP3    H134162   5.277   4.385   7.328  0.1504  0.1851 -1.6113
 4201TIP3    H234163   5.373   4.311   7.237  1.8008 -0.2348  0.3805
 4202TIP3   OH234164   1.373   1.232   7.188 -0.6031 -0.1469  0.0377
 4202TIP3    H134165   1.397   1.245   7.096  0.3786 -1.8835  0.0023
 4202TIP3    H234166   1.303   1.166   7.185 -0.1668 -0.6418  0.5468
 4203TIP3   OH234167   0.565   0.038   6.860  0.2293 -0.0050 -0.0982
 4203TIP3    H134168   0.598  -0.050   6.842 -0.4973 -0.1812 -0.6086
 4203TIP3    H234169   0.470   0.029   6.861  0.1442  0.2670  2.4341
 4204TIP3   OH234170   0.425   6.100   1.565  0.5682 -0.9816 -0.3140
 4204TIP3    H134171   0.344   6.049   1.573 -0.2095 -0.0329 -1.6220
 4204TIP3    H234172   0.402   6.187   1.600  0.8578 -0.5614 -1.1402
 4205TIP3   OH234173   6.380   5.894   1.547 -0.0340 -0.6975  0.2403
 4205TIP3    H134174   6.342   5.968   1.594  2.0173 -0.1804  1.2157
 4205TIP3    H234175   6.474   5.907   1.555  0.3861 -1.9725 -1.9121
 4206TIP3   OH234176   4.913   0.342   7.326 -0.2589  0.2403  0.1689
 4206TIP3    H134177   4.971   0.314   7.397 -0.3405  1.5384  0.7815
 4206TIP3    H234178   4.951   0.304   7.247  0.3685 -0.4573  0.7968
 4207TIP3   OH234179   2.637   4.926   2.602  0.5469 -0.7335  0.1599
 4207TIP3    H134180   2.601   4.999   2.652  0.1860 -0.5208 -0.3973
 4207TIP3    H234181   2.731   4.944   2.599  0.3468  0.2997 -0.8731
 4208TIP3   OH234182   4.486   2.685   1.370 -0.0009  0.1931 -0.0438
 4208TIP3    H134183   4.404   2.667   1.324 -0.8976  0.1586  1.4867
 4208TIP3    H234184   4.511   2.600   1.408 -0.9884  0.7781  2.1051
 4209TIP3   OH234185   3.563   2.795   2.203  0.6855  0.0983  0.1160
 4209TIP3    H134186   3.602   2.762   2.284  0.8447  2.7978  1.2412
 4209TIP3    H234187   3.568   2.890   2.211  0.6120  0.4772 -3.0481
 4210TIP3   OH234188   0.266   3.002   0.550  0.5711 -0.4473  0.1852
 4210TIP3    H134189   0.227   3.039   0.629  1.3447  1.1663 -0.1450
 4210TIP3    H234190   0.283   3.078   0.494  2.1038 -1.3113 -0.5903
 4211TIP3   OH234191   0.729   3.922   7.412  0.0211  0.3303 -0.1546
 4211TIP3    H134192   0.694   4.011   7.422  1.2466  0.7372  0.6542
 4211TIP3    H234193   0.698   3.895   7.326 -0.8964  1.2972 -0.1601
 4212TIP3   OH234194   0.882   1.278   0.906  0.4969 -0.4942  0.3442
 4212TIP3    H134195   0.787   1.273   0.913  0.4175  1.5447  1.4439
 4212TIP3    H234196   0.909   1.189   0.883 -1.6805 -1.0386 -0.3499
 4213TIP3   OH234197   1.010   3.386   0.044  0.0310 -0.3164 -0.3284
 4213TIP3    H134198   1.075   3.398   0.113  0.0510  0.3604 -0.4519
 4213TIP3    H234199   1.061   3.384  -0.037 -0.0673 -0.1150 -0.3978
 4214TIP3   OH234200   0.363   5.397   2.340  0.0446 -0.0166  0.1075
 4214TIP3    H134201   0.289   5.394   2.401  0.1442  0.9828  0.2857
 4214TIP3    H234202   0.364   5.310   2.300 -1.5633  0.1205 -0.2996
 4215TIP3   OH234203   5.796   0.061   2.192  0.4614 -0.4926  0.5742
 4215TIP3    H134204   5.829  -0.020   2.229 -0.5645 -2.4533 -2.4111
 4215TIP3    H234205   5.761   0.036   2.106  1.5616  3.3865 -1.2493
 4216TIP3   OH234206   2.267   1.229   2.333  0.0476  0.6224 -0.1009
 4216TIP3    H134207   2.307   1.302   2.380  0.2346  1.0232 -0.8649
 4216TIP3    H234208   2.181   1.262   2.306 -1.8695 -0.9235  3.3834
 4217TIP3   OH234209   6.611   1.986   7.769  0.9480  0.0321  0.5108
 4217TIP3    H134210   6.532   1.961   7.817 -0.3147 -0.7324 -1.8266
 4217TIP3    H234211   6.589   2.070   7.729  1.2604 -0.2331 -0.2395
 4218TIP3   OH234212   6.694   1.232   7.170 -0.4486  0.0187 -0.2848
 4218TIP3    H134213   6.762   1.270   7.226 -1.0958 -1.2257  1.4706
 4218TIP3    H234214   6.614   1.244   7.220 -0.8889 -2.1590 -0.3787
 4219TIP3   OH234215   2.366   0.565   7.779  0.2765  0.3600 -0.0069
 4219TIP3    H134216   2.436   0.503   7.758  0.3364  0.2394  0.5199
 4219TIP3    H234217   2.382   0.640   7.722  0.6294  0.1857 -0.1397
 4220TIP3   OH234218   3.631   0.592   2.290  0.2869  0.4267 -0.6299
 4220TIP3    H134219   3.616   0.501   2.263  0.4648  0.4562 -0.8308
 4220TIP3    H234220   3.714   0.616   2.249  0.5360  0.4923 -0.0999
 4221TIP3   OH234221   3.396   5.023   2.849  0.6281 -0.1354  0.5548
 4221TIP3    H134222   3.436   5.108   2.867  0.7734 -0.1485  0.3017
 4221TIP3    H234223   3.321   5.019   2.908  0.5146  0.2460  0.4392
 4222TIP3   OH234224   1.422   6.161   0.652 -0.4247 -0.3694  0.4311
 4222TIP3    H134225   1.343   6.147   0.600  0.2805 -1.7827 -0.3378
 4222TIP3    H234226   1.477   6.218   0.598 -1.6553  2.3182  1.8241
 4223TIP3   OH234227   0.850   3.577   8.092 -0.0903  0.3822 -0.4432
 4223TIP3    H134228   0.864   3.658   8.044  2.8698 -1.3449 -2.8338
 4223TIP3    H234229   0.767   3.543   8.057  0.4576  0.6688 -2.1200
 4224TIP3   OH234230   3.399   4.867   2.053  0.1934 -0.8726  0.0439
 4224TIP3    H134231   3.382   4.785   2.099 -0.3743  0.1953  1.8632
 4224TIP3    H234232   3.373   4.935   2.116 -0.3823  0.6867 -1.7919
 4225TIP3   OH234233   1.092   1.045   7.969  0.0383  0.3535  0.7114
 4225TIP3    H134234   1.136   1.121   8.007  0.6481  0.1644  0.3978
 4225TIP3    H234235   1.144   1.024   7.891 -0.7309  0.2524  0.2164
 4226TIP3   OH234236   6.606   4.870   7.381 -0.8136  0.1683 -0.0778
 4226TIP3    H134237   6.662   4.792   7.385 -1.5666 -0.3223  1.6728
 4226TIP3    H234238   6.517   4.835   7.379 -1.1307  0.9814 -0.8850
 4227TIP3   OH234239   5.324   0.231   2.510  0.2663  0.0044  0.7494
 4227TIP3    H134240   5.407   0.187   2.496  0.1794  0.6388 -2.5534
 4227TIP3    H234241   5.347   0.323   2.519 -0.0583  0.5183 -2.4545
 4228TIP3   OH234242   1.620   4.953   1.409  0.1469 -0.1851 -0.5758
 4228TIP3    H134243   1.560   5.010   1.361  0.1375  0.3260  0.0347
 4228TIP3    H234244   1.691   4.935   1.348  1.3104  2.3003 -0.0873
 4229TIP3   OH234245   4.836   6.716   8.375 -0.7865 -0.1881  0.5318
 4229TIP3    H134246   4.916   6.769   8.369 -0.7467 -0.1965  0.9593
 4229TIP3    H234247   4.858   6.647   8.438 -0.2375 -1.7709 -1.2892
 4230TIP3   OH234248   5.356   1.646   1.363  0.8751 -0.2812 -0.0364
 4230TIP3    H134249   5.445   1.611   1.354  0.5920 -1.3643  1.0160
 4230TIP3    H234250   5.366   1.740   1.354  1.9142 -0.4946 -1.4307
 4231TIP3   OH234251   2.684   5.212   7.359  0.1982  0.3924 -0.5980
 4231TIP3    H134252   2.674   5.117   7.366 -0.5502  0.3910 -1.5535
 4231TIP3    H234253   2.673   5.231   7.266 -1.9563  1.6454 -0.1725
 4232TIP3   OH234254   1.954   3.926   7.544  0.1057  0.7388  0.1470
 4232TIP3    H134255   2.023   3.971   7.497  0.3380  0.9244  0.6618
 4232TIP3    H234256   1.899   3.996   7.580  1.4140  0.7018  2.3803
 4233TIP3   OH234257   3.588   0.269   0.934  0.2816 -0.3733 -0.2835
 4233TIP3    H134258   3.573   0.177   0.911 -0.8870 -0.0837 -0.8140
 4233TIP3    H234259   3.626   0.307   0.855 -1.6268  0.1255 -1.0351
 4234TIP3   OH234260   2.247   0.908   0.530  0.1817  0.4137 -0.3511
 4234TIP3    H134261   2.301   0.928   0.453  0.9230 -0.9832 -0.2134
 4234TIP3    H234262   2.186   0.841   0.499  0.3868 -0.0452  0.2291
 4235TIP3   OH234263   3.758   0.979   1.316  0.2553  0.3729  0.3713
 4235TIP3    H134264   3.717   0.969   1.229  2.0866  0.9131 -0.6074
 4235TIP3    H234265   3.788   1.069   1.318  1.9855 -0.1679  0.7295
 4236TIP3   OH234266   4.686   0.893   0.195 -0.1681  0.2488 -0.4938
 4236TIP3    H134267   4.748   0.833   0.235  0.8968  1.4417 -0.3095
 4236TIP3    H234268   4.717   0.904   0.105 -0.3747  0.4950 -0.5378
 4237TIP3   OH234269   6.005   5.057   7.852 -0.2181 -0.1884 -0.1302
 4237TIP3    H134270   6.043   5.138   7.819 -0.5768 -0.3423 -0.9611
 4237TIP3    H234271   5.964   5.081   7.935 -0.0038  0.3938 -0.1901
 4238TIP3   OH234272   0.447   1.516   0.576 -0.1504  0.2167 -0.1721
 4238TIP3    H134273   0.367   1.478   0.611 -0.0363  1.9236  2.2296
 4238TIP3    H234274   0.516   1.485   0.634  0.7061  0.0294 -1.2563
 4239TIP3   OH234275   0.855   5.536   3.194  0.0265  0.1669 -0.4692
 4239TIP3    H134276   0.925   5.573   3.247 -0.0620 -1.0281  0.5336
 4239TIP3    H234277   0.886   5.544   3.103  1.0245  0.5300 -0.1066
 4240TIP3   OH234278   5.196   5.799   7.311 -0.0610 -0.1479 -0.6980
 4240TIP3    H134279   5.280   5.753   7.318  0.0097  0.1948  1.7149
 4240TIP3    H234280   5.137   5.735   7.272  0.4825 -1.7180  0.8978
 4241TIP3   OH234281   6.409   3.600   0.568 -0.2551  0.0504  0.0790
 4241TIP3    H134282   6.345   3.654   0.614  0.7608  0.0109  1.6176
 4241TIP3    H234283   6.450   3.549   0.637  0.7520 -0.6417 -1.0057
 4242TIP3   OH234284   0.555   4.895   0.746 -0.1485 -0.5331  0.2997
 4242TIP3    H134285   0.586   4.961   0.809 -3.9086 -0.7973  2.7219
 4242TIP3    H234286   0.511   4.946   0.678 -0.4092 -0.4281  0.5463
 4243TIP3   OH234287   2.162   6.886   7.485  0.0719  0.3962 -0.5304
 4243TIP3    H134288   2.072   6.918   7.489 -0.5370 -1.3354  0.7821
 4243TIP3    H234289   2.159   6.817   7.418  0.8536  1.4306 -1.6953
 4244TIP3   OH234290   2.216   1.377   7.807  0.5963 -0.6439 -0.2882
 4244TIP3    H134291   2.219   1.367   7.712 -1.0256  0.9137 -0.5592
 4244TIP3    H234292   2.265   1.458   7.823  0.5338 -0.6928  0.1522
 4245TIP3   OH234293   1.762   3.333   0.158  0.3416 -0.0673  0.9050
 4245TIP3    H134294   1.696   3.356   0.093  1.7854  1.4924 -0.1049
 4245TIP3    H234295   1.736   3.247   0.190 -2.2801  0.5848  0.7361
 4246TIP3   OH234296   1.873   6.421   0.421 -0.1480 -0.0009  0.2220
 4246TIP3    H134297   1.966   6.440   0.408 -0.2431  0.2011 -0.2128
 4246TIP3    H234298   1.855   6.448   0.511  0.0257  0.7441  0.0444
 4247TIP3   OH234299   6.865   4.216   1.631  0.9450 -1.0476 -0.1923
 4247TIP3    H134300   6.936   4.199   1.692  1.6355 -1.8371 -1.1834
 4247TIP3    H234301   6.904   4.271   1.563 -0.1895  1.1049  0.7689
 4248TIP3   OH234302   2.240   1.778   1.855  0.2578  0.1059 -0.0429
 4248TIP3    H134303   2.282   1.721   1.920 -2.0944 -0.8460  0.7423
 4248TIP3    H234304   2.220   1.721   1.781  0.3140  0.5455 -0.4079
 4249TIP3   OH234305   0.594   4.079   0.442 -0.1485 -0.0950 -0.3506
 4249TIP3    H134306   0.537   4.148   0.408  0.2813  0.8745  0.8341
 4249TIP3    H234307   0.568   4.070   0.533  3.0642  2.0335  0.9472
 4250TIP3   OH234308   6.066   6.645   8.002  0.2024 -0.3953  0.1330
 4250TIP3    H134309   6.041   6.554   7.989  0.0443 -0.1658 -1.3824
 4250TIP3    H234310   5.982   6.692   8.007  0.2811 -0.3288  1.0055
 4251TIP3   OH234311   5.821   4.207   6.792 -0.6243  0.2041 -0.5075
 4251TIP3    H134312   5.901   4.254   6.814  1.1264 -2.8149  0.0592
 4251TIP3    H234313   5.751   4.263   6.825  1.2285  2.6281 -0.3957
 4252TIP3   OH234314   5.255   0.855   0.451 -0.3205 -0.2371 -0.1714
 4252TIP3    H134315   5.245   0.906   0.371  0.7137 -0.2809 -0.3445
 4252TIP3    H234316   5.211   0.907   0.518 -1.4017 -0.3167 -0.7999
 4253TIP3   OH234317   3.434   5.308   8.283  0.0228 -0.1561 -0.1915
 4253TIP3    H134318   3.489   5.386   8.286 -0.2908  0.2052 -2.3242
 4253TIP3    H234319   3.358   5.330   8.336 -0.7737  1.6380 -1.9371
 4254TIP3   OH234320   2.671   0.885   2.953  0.3014 -0.5802 -0.2969
 4254TIP3    H134321   2.659   0.961   3.009 -1.5661 -1.3121  0.3853
 4254TIP3    H234322   2.746   0.839   2.991 -1.6257 -1.6863  2.4580
 4255TIP3   OH234323   6.695   0.014   1.989 -0.3203  0.3493 -0.1624
 4255TIP3    H134324   6.660  -0.018   2.072  0.0446 -0.6322 -0.3735
 4255TIP3    H234325   6.790   0.012   2.001 -0.2475 -0.3473 -0.7890
 4256TIP3   OH234326   3.441   2.817   0.519 -0.2513 -0.1126  0.2177
 4256TIP3    H134327   3.461   2.818   0.426  2.6106  0.0159  0.7399
 4256TIP3    H234328   3.417   2.908   0.539 -2.5812 -0.4770 -0.6277
 4257TIP3   OH234329   0.716   2.496   8.034 -0.3675 -0.0329 -0.1231
 4257TIP3    H134330   0.679   2.584   8.040  0.8794  0.4351  0.9676
 4257TIP3    H234331   0.664   2.453   7.966 -0.0759  2.0070 -1.7278
 4258TIP3   OH234332   2.164   4.569   2.111  0.4234 -0.3168  0.8913
 4258TIP3    H134333   2.091   4.628   2.131 -1.0987 -1.0597 -2.0417
 4258TIP3    H234334   2.131   4.482   2.132  0.7396 -0.5965  0.2505
 4259TIP3   OH234335   2.381   2.269   0.269  0.0745 -0.1635 -0.3322
 4259TIP3    H134336   2.450   2.320   0.227 -0.6728  1.6482  0.5225
 4259TIP3    H234337   2.371   2.308   0.356 -2.2601 -0.0774 -0.5580
 4260TIP3   OH234338   0.849   2.431   1.320 -0.1696  0.2067 -0.4969
 4260TIP3    H134339   0.879   2.478   1.242 -0.2831 -0.9258 -1.2430
 4260TIP3    H234340   0.906   2.463   1.390  0.0564  1.1051 -1.0677
 4261TIP3   OH234341   6.625   5.383   1.226  0.2088 -0.1207  0.0858
 4261TIP3    H134342   6.572   5.340   1.159  0.4660  0.4978 -0.5248
 4261TIP3    H234343   6.703   5.328   1.235  0.8250  0.5250 -1.1357
 4262TIP3   OH234344   0.412   5.839   8.038  0.0579  0.3003  0.3916
 4262TIP3    H134345   0.498   5.808   8.009 -0.1027  0.4059 -0.2035
 4262TIP3    H234346   0.394   5.789   8.117 -0.3621 -1.4044 -0.7446
 4263TIP3   OH234347   3.414   0.670   2.445  0.6279  0.8097  0.0318
 4263TIP3    H134348   3.502   0.657   2.409  0.5810 -0.2841  0.2571
 4263TIP3    H234349   3.427   0.671   2.540  0.2125 -1.3819  0.1699
 4264TIP3   OH234350   6.127   6.130   2.597  0.0945  0.4512 -0.0152
 4264TIP3    H134351   6.074   6.170   2.528  0.8398 -0.0405 -0.9058
 4264TIP3    H234352   6.071   6.129   2.674 -1.1555 -0.0061 -0.9104
 4265TIP3   OH234353   0.672   5.445   6.952  0.2817  0.5724  0.8076
 4265TIP3    H134354   0.722   5.376   6.909  1.6611  1.0557  1.5537
 4265TIP3    H234355   0.728   5.523   6.945 -1.1345  1.5796  0.1763
 4266TIP3   OH234356   6.865   1.995   0.582  0.0462  0.6988 -0.0329
 4266TIP3    H134357   6.874   2.089   0.567 -0.5013  1.0530  1.6593
 4266TIP3    H234358   6.952   1.959   0.564  0.0070  1.3382 -1.7262
 4267TIP3   OH234359   1.310   5.285   1.433  0.6528 -0.2606 -0.0172
 4267TIP3    H134360   1.302   5.190   1.443 -0.3608 -0.0269  1.7279
 4267TIP3    H234361   1.393   5.307   1.475  1.3933 -0.4536 -1.3132
 4268TIP3   OH234362   5.129   6.180   7.859  0.2629  0.1130 -0.5819
 4268TIP3    H134363   5.117   6.162   7.766  1.1985  1.2539 -0.9402
 4268TIP3    H234364   5.059   6.242   7.881  2.0848  2.6110 -1.4104
 4269TIP3   OH234365   2.687   2.761   8.114 -0.0393  0.0339 -0.4811
 4269TIP3    H134366   2.770   2.756   8.066  0.1053 -0.2615 -0.2045
 4269TIP3    H234367   2.709   2.734   8.203 -0.2135  1.0441 -0.1228
 4270TIP3   OH234368   2.179   2.685   0.677  0.4956 -0.6000 -0.4033
 4270TIP3    H134369   2.180   2.615   0.612  1.0970 -1.7526  0.8047
 4270TIP3    H234370   2.271   2.697   0.700  0.2161 -0.9778  1.0000
 4271TIP3   OH234371   5.909   1.911   2.311 -0.3817  0.3321  0.2270
 4271TIP3    H134372   5.975   1.973   2.279  0.2744  0.1513  1.1584
 4271TIP3    H234373   5.827   1.960   2.310  0.2880  1.6278  1.9471
 4272TIP3   OH234374   1.200   3.055   0.967  0.1700 -0.3207 -0.4517
 4272TIP3    H134375   1.242   3.040   0.882 -0.4844 -0.7263 -0.7101
 4272TIP3    H234376   1.190   3.150   0.972 -3.4679 -0.3931 -2.6883
 4273TIP3   OH234377   2.532   3.223   7.569  0.0509  0.3960  0.4493
 4273TIP3    H134378   2.445   3.185   7.575 -0.0950  0.7153  0.4126
 4273TIP3    H234379   2.583   3.160   7.519 -0.3828  0.5784 -0.2401
 4274TIP3   OH234380   4.339   3.868   2.145 -0.3490  0.1560  0.3076
 4274TIP3    H134381   4.382   3.873   2.059  1.7949  1.4697  1.3600
 4274TIP3    H234382   4.274   3.938   2.143  0.2868  0.7553  0.0409
 4275TIP3   OH234383   3.450   5.633   2.350  0.1642 -0.0793  0.1440
 4275TIP3    H134384   3.458   5.588   2.435 -0.0784  0.7156  0.5967
 4275TIP3    H234385   3.377   5.694   2.362 -0.3274 -0.4379 -0.8625
 4276TIP3   OH234386   1.166   5.899   0.781  0.5225  0.0296 -0.5160
 4276TIP3    H134387   1.076   5.931   0.771  0.5463  0.4568  0.4903
 4276TIP3    H234388   1.158   5.804   0.783 -0.0174  0.0831  0.4381
 4277TIP3   OH234389   1.945   4.788   1.540 -0.0813 -0.3210 -0.4240
 4277TIP3    H134390   1.925   4.709   1.591 -0.6685  0.0946  0.0020
 4277TIP3    H234391   1.942   4.859   1.604  0.5615  0.0429 -0.7830
 4278TIP3   OH234392   6.044   2.540   1.250  0.3094  0.4247 -0.4594
 4278TIP3    H134393   6.129   2.562   1.289  0.7111  0.3488 -1.2800
 4278TIP3    H234394   6.008   2.624   1.221  0.4965  0.3477 -0.9059
 4279TIP3   OH234395   1.849   6.893   7.645 -0.2413 -0.0436  0.3787
 4279TIP3    H134396   1.896   6.810   7.649 -0.5327 -0.3844 -2.0869
 4279TIP3    H234397   1.766   6.872   7.602 -0.2130  1.5541 -0.5184
 4280TIP3   OH234398   2.446   0.741   7.572 -0.0669 -0.6569  0.0949
 4280TIP3    H134399   2.467   0.834   7.562  0.8161 -0.7783  0.6958
 4280TIP3    H234400   2.519   0.696   7.529 -1.2590 -1.0779 -1.5720
 4281TIP3   OH234401   2.299   2.609   2.705  0.4401  0.4279  0.1082
 4281TIP3    H134402   2.318   2.561   2.785 -0.2618 -1.2790 -0.7188
 4281TIP3    H234403   2.385   2.640   2.674  0.9086 -0.3451  0.6249
 4282TIP3   OH234404   2.971   1.358   1.057 -0.7348  0.1581 -0.3635
 4282TIP3    H134405   2.974   1.377   0.963 -1.1119 -2.6195 -1.0318
 4282TIP3    H234406   2.880   1.372   1.082 -0.6138  0.9955 -0.3664
 4283TIP3   OH234407   3.618   6.615   2.242 -0.2874 -0.1887 -0.1263
 4283TIP3    H134408   3.582   6.583   2.325  1.5454 -1.6016  0.1888
 4283TIP3    H234409   3.566   6.570   2.175 -1.0733  0.1273  0.2615
 4284TIP3   OH234410   3.201   0.726   8.096 -0.2809 -0.3169  0.2062
 4284TIP3    H134411   3.215   0.798   8.034  1.9323  2.6317  3.6964
 4284TIP3    H234412   3.272   0.665   8.077 -0.6496 -0.3604 -1.1637
 4285TIP3   OH234413   1.001   3.567   8.378 -0.2413 -0.1931  0.2037
 4285TIP3    H134414   0.919   3.530   8.344 -1.1476  0.1761  1.8885
 4285TIP3    H234415   1.063   3.556   8.306 -2.3857  1.8558 -2.1815
 4286TIP3   OH234416   0.976   0.493   2.867  0.6186 -0.2603 -0.4682
 4286TIP3    H134417   1.059   0.467   2.907  0.4037 -0.6095 -0.2363
 4286TIP3    H234418   0.966   0.434   2.792  1.1386  0.5555 -1.1965
 4287TIP3   OH234419   2.305   5.220   8.555 -0.2451 -0.5802  0.3079
 4287TIP3    H134420   2.358   5.205   8.477 -0.4642 -0.4721  0.1351
 4287TIP3    H234421   2.366   5.254   8.620  0.1690 -1.7294  0.5487
 4288TIP3   OH234422   5.541   6.828   2.269  0.0328  0.7732  0.2360
 4288TIP3    H134423   5.544   6.811   2.364 -1.6165  3.4596  0.8745
 4288TIP3    H234424   5.588   6.911   2.258 -0.7150  1.0405 -1.1497
 4289TIP3   OH234425   3.600   6.705   7.977  0.8093  0.2921  0.6461
 4289TIP3    H134426   3.559   6.618   7.969  2.9168 -0.7321  0.2410
 4289TIP3    H234427   3.607   6.719   8.071 -1.2499  0.9281  0.7523
 4290TIP3   OH234428   3.237   3.018   0.474 -0.1176  0.3785 -0.5157
 4290TIP3    H134429   3.178   3.041   0.546 -0.4884 -1.2274 -0.2656
 4290TIP3    H234430   3.179   3.001   0.400  0.2481  1.7915 -1.1472
 4291TIP3   OH234431   4.369   0.756   0.885 -0.4839  0.5849  0.1057
 4291TIP3    H134432   4.415   0.673   0.876 -0.3622  0.6704 -0.0790
 4291TIP3    H234433   4.299   0.739   0.947 -0.9373  0.1446 -0.5123
 4292TIP3   OH234434   4.167   0.033   8.092 -0.4762 -0.1876  0.2659
 4292TIP3    H134435   4.121  -0.050   8.085  0.2422 -0.7723  1.8518
 4292TIP3    H234436   4.232   0.018   8.161 -0.5244  1.7826  0.7858
 4293TIP3   OH234437   6.201   2.865   8.414  0.5543  0.3910 -0.1929
 4293TIP3    H134438   6.175   2.957   8.410  0.1134  0.2536 -0.5590
 4293TIP3    H234439   6.181   2.831   8.327  3.6058  0.6861 -1.1544
 4294TIP3   OH234440   1.007   1.622   0.026 -0.2605  0.6223 -0.7673
 4294TIP3    H134441   1.060   1.636   0.104 -1.4127 -0.1526  0.1838
 4294TIP3    H234442   0.918   1.649   0.051 -0.7815 -0.2404 -1.5804
 4295TIP3   OH234443   4.995   6.419   2.086 -0.2466  0.0110 -0.0055
 4295TIP3    H134444   4.922   6.465   2.127 -0.3593  0.4752 -0.7207
 4295TIP3    H234445   4.975   6.419   1.993  1.3055  1.3425 -0.4013
 4296TIP3   OH234446   5.703   1.314   0.160  0.5318  0.2573  0.5659
 4296TIP3    H134447   5.674   1.316   0.251  2.1808 -2.6036  1.2936
 4296TIP3    H234448   5.679   1.226   0.129  1.6797  0.4951 -1.1389
 4297TIP3   OH234449   4.760   0.181   0.192  0.3206 -0.3808  0.7463
 4297TIP3    H134450   4.814   0.136   0.127  1.0604  0.2859  0.8849
 4297TIP3    H234451   4.676   0.194   0.149  1.5096  2.1906 -1.0139
 4298TIP3   OH234452   1.425   5.136   3.116 -1.1956 -0.1412 -0.8081
 4298TIP3    H134453   1.465   5.053   3.089  2.2005  0.4257  1.8655
 4298TIP3    H234454   1.355   5.110   3.176 -2.4974 -1.0633 -2.6272
 4299TIP3   OH234455   5.445   3.829   0.583  0.4391  0.1169 -0.4083
 4299TIP3    H134456   5.511   3.759   0.587  0.5260  0.2410  0.3758
 4299TIP3    H234457   5.452   3.874   0.667  0.0282  0.7532 -0.7063
 4300TIP3   OH234458   0.481   0.775   2.166  0.0552 -0.9989 -0.1007
 4300TIP3    H134459   0.447   0.852   2.212 -0.2460 -0.6894 -0.8260
 4300TIP3    H234460   0.427   0.702   2.197 -0.6867 -0.6545 -0.5786
 4301TIP3   OH234461   4.055   2.767   7.946  0.9457 -0.2584  0.0031
 4301TIP3    H134462   4.118   2.699   7.922  0.7065  0.0085 -1.4675
 4301TIP3    H234463   3.977   2.748   7.892 -0.2135 -0.5133  1.6897
 4302TIP3   OH234464   4.585   0.394   0.033  0.2555  0.1597 -0.6881
 4302TIP3    H134465   4.622   0.483   0.032 -0.4204  0.4578 -0.1317
 4302TIP3    H234466   4.512   0.399   0.095  0.8048 -1.0253  0.0928
 4303TIP3   OH234467   2.182   1.631   8.185 -0.1634  0.6473 -0.2012
 4303TIP3    H134468   2.223   1.556   8.144  0.2241  0.2153  0.9312
 4303TIP3    H234469   2.220   1.635   8.273  1.3261  3.3238 -0.8395
 4304TIP3   OH234470   6.407   5.026   0.501  0.3217  0.2832  0.6189
 4304TIP3    H134471   6.411   5.020   0.406  0.0736 -0.3381  0.6449
 4304TIP3    H234472   6.389   4.936   0.530 -2.8298  0.9400  1.0790
 4305TIP3   OH234473   6.419   5.268   1.051  0.1225 -0.3046  0.2355
 4305TIP3    H134474   6.484   5.302   0.990  0.6471 -1.2429  0.2503
 4305TIP3    H234475   6.363   5.211   0.999 -0.3590  0.0830  0.3288
 4306TIP3   OH234476   1.805   6.751   2.121 -0.2796  0.1059  0.3029
 4306TIP3    H134477   1.734   6.704   2.164 -1.0816  1.1173  0.1089
 4306TIP3    H234478   1.762   6.811   2.060  0.6849  1.3424  0.7964
 4307TIP3   OH234479   4.516   4.502   0.229 -0.0394  0.7219 -0.3169
 4307TIP3    H134480   4.427   4.506   0.264  0.1233 -0.7282  0.3759
 4307TIP3    H234481   4.549   4.591   0.237 -1.2170  1.1549 -0.0180
 4308TIP3   OH234482   3.186   2.010   2.014  0.0022 -0.1421  0.1597
 4308TIP3    H134483   3.134   2.089   2.002 -2.1386 -1.0326  2.6549
 4308TIP3    H234484   3.170   1.958   1.935  1.4506  1.8009 -1.5186
 4309TIP3   OH234485   4.637   2.147   1.626  0.1098  0.5398  0.3945
 4309TIP3    H134486   4.591   2.183   1.550  1.3832 -0.0221 -0.6778
 4309TIP3    H234487   4.570   2.094   1.671 -0.6769  0.9174 -0.3026
 4310TIP3   OH234488   1.587   2.655   1.557  0.0913  0.2212 -0.6224
 4310TIP3    H134489   1.659   2.591   1.553 -1.8052 -2.0674 -0.7466
 4310TIP3    H234490   1.581   2.677   1.650  0.4313 -0.2151 -0.4869
 4311TIP3   OH234491   0.603   3.998   8.542  0.1991 -0.2366 -0.1003
 4311TIP3    H134492   0.646   3.931   8.489 -0.7084 -0.8979 -0.0146
 4311TIP3    H234493   0.676   4.049   8.579  0.9218 -1.5272  0.3093
 4312TIP3   OH234494   0.787   1.315   7.996  0.2073  0.3185  0.4580
 4312TIP3    H134495   0.776   1.331   8.090  1.3424  1.9791  0.3555
 4312TIP3    H234496   0.776   1.220   7.986  0.6456  0.0246  2.3648
 4313TIP3   OH234497   3.786   5.544   7.180 -0.2093  1.0169  0.5479
 4313TIP3    H134498   3.724   5.472   7.188  0.6402  0.4271  2.3492
 4313TIP3    H234499   3.732   5.622   7.174 -1.1607  0.5315  2.2268
 4314TIP3   OH234500   3.605   3.505   1.188  0.2388  0.0852  0.4296
 4314TIP3    H134501   3.639   3.592   1.207  0.8232 -0.5435  2.5631
 4314TIP3    H234502   3.684   3.450   1.182 -0.1700 -0.4949  0.2720
 4315TIP3   OH234503   2.847   3.917   1.640 -0.5095  0.1625  0.0684
 4315TIP3    H134504   2.897   3.866   1.704  0.1424 -0.3840 -0.8719
 4315TIP3    H234505   2.775   3.860   1.615  1.4946 -1.3351 -2.7386
 4316TIP3   OH234506   4.854   6.341   7.612 -0.0695  0.0026 -0.4375
 4316TIP3    H134507   4.901   6.356   7.530  1.2891 -0.6906  0.1825
 4316TIP3    H234508   4.771   6.389   7.601  1.4566  2.7488 -0.8901
 4317TIP3   OH234509   5.572   0.908   1.110  0.3601  0.3374 -0.1904
 4317TIP3    H134510   5.600   0.935   1.197 -1.7647  0.0987  0.6469
 4317TIP3    H234511   5.612   0.822   1.097  0.7194  0.3824  0.5504
 4318TIP3   OH234512   4.235   3.316   0.160  0.6095  0.3283  0.0367
 4318TIP3    H134513   4.317   3.284   0.196  0.2417  0.7398  1.3072
 4318TIP3    H234514   4.180   3.238   0.151  0.7187  0.2192  0.3238
 4319TIP3   OH234515   1.822   5.984   7.357 -0.7830 -0.2173  0.6475
 4319TIP3    H134516   1.904   6.025   7.384  0.4292 -1.0566 -1.5320
 4319TIP3    H234517   1.757   6.054   7.363  0.5093  1.0466  0.3885
 4320TIP3   OH234518   3.427   5.565   1.948  0.7276  0.0064 -0.1837
 4320TIP3    H134519   3.425   5.518   2.031  0.4824 -1.4431 -0.9760
 4320TIP3    H234520   3.341   5.605   1.941  1.0491  0.8728  0.6546
 4321TIP3   OH234521   0.387   1.627   2.683  1.1851  0.0384 -0.3499
 4321TIP3    H134522   0.324   1.674   2.738  0.7537  0.8842 -1.5112
 4321TIP3    H234523   0.384   1.537   2.714 -0.3422  0.1377 -0.1351
 4322TIP3   OH234524   3.357   0.965   1.971 -0.7062  0.4867  0.8190
 4322TIP3    H134525   3.356   1.015   2.052  0.2203  0.8937  0.5922
 4322TIP3    H234526   3.400   0.883   1.994  0.0070  0.8012  0.6411
 4323TIP3   OH234527   3.271   5.245   1.125 -0.1035  0.2786  0.3016
 4323TIP3    H134528   3.221   5.166   1.106  0.3324  0.0664  0.0269
 4323TIP3    H234529   3.345   5.215   1.178  0.9508  0.2428 -1.1463
 4324TIP3   OH234530   6.896   5.170   8.406  0.0377  0.5763 -0.4254
 4324TIP3    H134531   6.801   5.161   8.400 -0.0915  1.1221  0.5450
 4324TIP3    H234532   6.913   5.182   8.499  1.2352 -1.1795 -0.3747
 4325TIP3   OH234533   4.138   6.644   2.200  0.3972 -0.5619 -0.0396
 4325TIP3    H134534   4.159   6.573   2.261 -2.3211 -2.0448 -0.6748
 4325TIP3    H234535   4.047   6.628   2.174  0.9341  0.8197 -3.3443
 4326TIP3   OH234536   1.870   3.179   1.796  0.0123  0.0200  0.3985
 4326TIP3    H134537   1.891   3.165   1.703  2.0247  1.1287  0.6365
 4326TIP3    H234538   1.777   3.202   1.796  0.0025  0.1492 -1.3600
 4327TIP3   OH234539   5.257   2.978   2.547  0.4106 -0.3161  0.2992
 4327TIP3    H134540   5.349   2.956   2.552  0.4954 -0.5012 -1.5024
 4327TIP3    H234541   5.253   3.071   2.570  1.2353  0.0333 -0.8956
 4328TIP3   OH234542   4.594   5.179   2.064 -0.4946  0.2493 -0.1009
 4328TIP3    H134543   4.654   5.124   2.114  2.6384  0.9673 -2.7758
 4328TIP3    H234544   4.549   5.232   2.130  0.8229 -1.2542  2.1149
 4329TIP3   OH234545   2.887   2.371   0.374  0.0242  0.5048  0.1101
 4329TIP3    H134546   2.807   2.423   0.377  0.3857  1.0453  0.4393
 4329TIP3    H234547   2.950   2.425   0.326  0.2974  0.2308  0.1518
 4330TIP3   OH234548   3.613   1.565   3.177 -0.1559  0.0753 -0.0399
 4330TIP3    H134549   3.609   1.644   3.124  0.8946  0.8499  0.9942
 4330TIP3    H234550   3.700   1.529   3.160 -0.8492 -1.2589 -1.0066
 4331TIP3   OH234551   2.184   5.996   1.741  0.2015 -0.1480  0.0673
 4331TIP3    H134552   2.219   6.049   1.812 -0.7674  0.4828  0.1065
 4331TIP3    H234553   2.114   5.944   1.781  0.6810 -0.9458 -0.1136
 4332TIP3   OH234554   0.837   3.812   1.476  0.1464  0.5063  0.3100
 4332TIP3    H134555   0.882   3.745   1.425  3.0592  1.2588  1.6399
 4332TIP3    H234556   0.838   3.889   1.419  2.4129  1.0408  0.9456
 4333TIP3   OH234557   2.331   3.407   8.311  0.4674  0.0335 -0.3278
 4333TIP3    H134558   2.388   3.331   8.302  2.4010  1.2407  0.9046
 4333TIP3    H234559   2.323   3.421   8.405  0.8919  1.7955 -0.5004
 4334TIP3   OH234560   0.801   5.676   1.405  0.5497 -0.0716 -0.1698
 4334TIP3    H134561   0.734   5.696   1.470  1.0409  1.7826 -0.1859
 4334TIP3    H234562   0.766   5.601   1.357 -0.4975 -0.5305  1.2451
 4335TIP3   OH234563   4.685   4.261   6.648  0.5235 -0.1164  0.1641
 4335TIP3    H134564   4.761   4.241   6.593  1.1824  1.0362  0.6375
 4335TIP3    H234565   4.721   4.269   6.737  0.0748  1.7080  0.2055
 4336TIP3   OH234566   4.926   1.232   6.320  0.2499 -0.0844 -0.4578
 4336TIP3    H134567   4.865   1.211   6.250 -1.0964  0.9236  0.3677
 4336TIP3    H234568   4.919   1.159   6.382 -1.0035  0.5400  0.1787
 4337TIP3   OH234569   6.185   1.956   7.696 -0.7209  0.6625 -0.1600
 4337TIP3    H134570   6.236   1.895   7.643  0.6272 -0.1216  1.9120
 4337TIP3    H234571   6.113   1.903   7.731 -0.7722  0.8140 -0.0350
 4338TIP3   OH234572   6.911   3.243   8.547 -0.2624 -0.1963 -0.2093
 4338TIP3    H134573   6.894   3.149   8.558  0.5370 -0.3914 -0.6410
 4338TIP3    H234574   6.956   3.268   8.628 -1.5261  0.0936  0.4496
 4339TIP3   OH234575   5.746   3.169   0.864 -0.2322 -0.0058 -0.4735
 4339TIP3    H134576   5.671   3.129   0.819 -1.6334  0.6564  1.1540
 4339TIP3    H234577   5.814   3.175   0.797 -1.4693 -1.0506 -1.8934
 4340TIP3   OH234578   2.749   2.355   2.439  0.0282 -0.0982 -0.5628
 4340TIP3    H134579   2.798   2.408   2.376  1.9291 -1.8445 -0.6713
 4340TIP3    H234580   2.776   2.388   2.524 -0.4273  0.4563 -0.6241
 4341TIP3   OH234581   0.442   0.326   1.394 -0.2168 -1.0059 -0.1864
 4341TIP3    H134582   0.511   0.363   1.449 -0.1176 -1.1193 -0.2336
 4341TIP3    H234583   0.480   0.245   1.359 -1.0602 -2.1247  1.3577
 4342TIP3   OH234584   3.819   3.936   0.156 -0.3936 -0.1558  0.1163
 4342TIP3    H134585   3.807   4.027   0.128 -0.6513  0.2293  1.3949
 4342TIP3    H234586   3.806   3.885   0.077 -1.5100  0.8445 -0.3882
 4343TIP3   OH234587   3.466   3.471   7.864 -0.5055 -0.7432 -0.0186
 4343TIP3    H134588   3.514   3.436   7.789 -0.0651 -1.3955  0.5552
 4343TIP3    H234589   3.403   3.402   7.887 -0.2787 -0.7739  0.5349
 4344TIP3   OH234590   6.021   0.552   7.249 -0.4757  0.2360  0.6991
 4344TIP3    H134591   6.039   0.529   7.158  1.5335  1.4057  0.7398
 4344TIP3    H234592   5.954   0.620   7.244  0.4039  1.0709  0.0021
 4345TIP3   OH234593   0.737   6.388   0.922  0.7920 -0.1975  0.3814
 4345TIP3    H134594   0.794   6.458   0.953  0.8249 -0.2789  0.5031
 4345TIP3    H234595   0.675   6.373   0.994 -0.2934  0.8752 -0.2879
 4346TIP3   OH234596   0.054   2.655   1.750 -0.6091  0.1275 -0.2052
 4346TIP3    H134597   0.040   2.627   1.840 -1.1393  0.4153 -0.1928
 4346TIP3    H234598   0.111   2.732   1.758  2.4547 -1.9561 -0.3489
 4347TIP3   OH234599   5.765   4.252   1.733 -0.0136 -0.2603 -0.1015
 4347TIP3    H134600   5.669   4.255   1.729 -0.0720 -1.9946 -0.8160
 4347TIP3    H234601   5.793   4.339   1.704 -1.3618  0.3406  0.3167
 4348TIP3   OH234602   0.867   1.083   7.065  0.3198  0.2108 -0.1712
 4348TIP3    H134603   0.912   1.143   7.005  1.4427 -0.1981  0.2340
 4348TIP3    H234604   0.936   1.053   7.125  0.1840 -2.6912 -1.2954
 4349TIP3   OH234605   6.725   0.600   1.553 -0.0736 -0.4045 -0.1955
 4349TIP3    H134606   6.656   0.632   1.495 -2.0295  1.0424  2.6537
 4349TIP3    H234607   6.684   0.528   1.601  0.1673  0.7214  1.8288
 4350TIP3   OH234608   0.178   5.865   1.311  0.5923  0.2015 -0.4606
 4350TIP3    H134609   0.194   5.836   1.221 -0.9819 -1.4002 -0.2932
 4350TIP3    H234610   0.226   5.801   1.365 -0.7604 -0.5827 -0.1376
 4351TIP3   OH234611   6.219   4.429   2.036  0.4024  0.6387  0.1960
 4351TIP3    H134612   6.259   4.494   1.978  2.1980 -0.1491  0.4822
 4351TIP3    H234613   6.245   4.458   2.124  0.7817 -0.1672  0.3542
 4352TIP3   OH234614   5.549   3.291   1.018 -0.5783 -0.2994  0.2990
 4352TIP3    H134615   5.503   3.349   0.957  1.1784  0.8800  0.0336
 4352TIP3    H234616   5.619   3.252   0.966 -0.3939 -0.9700  1.0362
 4353TIP3   OH234617   5.412   2.423   0.991 -0.7309  0.1885 -0.1624
 4353TIP3    H134618   5.423   2.449   1.082  0.3761 -1.7042  0.2973
 4353TIP3    H234619   5.502   2.410   0.959 -1.1546 -0.8479 -0.9908
 4354TIP3   OH234620   4.598   0.410   7.485 -0.1464 -0.4780 -0.2246
 4354TIP3    H134621   4.616   0.504   7.483 -2.4041 -0.0202 -1.1952
 4354TIP3    H234622   4.569   0.393   7.574  1.0939 -0.4574  0.2040
 4355TIP3   OH234623   0.095   3.941   1.694 -0.2961 -0.0783 -0.2063
 4355TIP3    H134624   0.099   4.000   1.769 -0.9691 -0.9105  0.5067
 4355TIP3    H234625   0.177   3.955   1.648  1.2212 -1.2539  1.9983
 4356TIP3   OH234626   1.361   5.660   2.133 -0.1973 -0.1800  0.2390
 4356TIP3    H134627   1.330   5.647   2.043  1.1509 -1.5900 -0.0732
 4356TIP3    H234628   1.330   5.582   2.179  2.0333 -1.2322  0.1044
 4357TIP3   OH234629   2.917   5.640   0.378 -0.1776 -0.6746 -0.0181
 4357TIP3    H134630   2.976   5.571   0.408  0.7611 -0.5914 -1.5597
 4357TIP3    H234631   2.907   5.623   0.284 -0.9673  0.5341 -0.1681
 4358TIP3   OH234632   5.678   0.661   1.188  0.1503  0.0635 -0.2240
 4358TIP3    H134633   5.593   0.648   1.232 -0.2417  1.2038 -0.5979
 4358TIP3    H234634   5.742   0.651   1.258 -0.3877  0.5694  0.3607
 4359TIP3   OH234635   0.241   0.731   1.319  0.0387 -1.0536 -0.4819
 4359TIP3    H134636   0.334   0.731   1.298  0.1622  0.5048 -0.0556
 4359TIP3    H234637   0.207   0.651   1.280  1.1937 -0.7010 -2.3087
 4360TIP3   OH234638   4.081   4.450   1.201  0.1465 -0.5415 -0.1496
 4360TIP3    H134639   4.173   4.447   1.224  0.3194 -1.3045 -0.8739
 4360TIP3    H234640   4.076   4.407   1.115 -0.7190  0.4987 -0.6615
 4361TIP3   OH234641   1.657   2.383   0.789  0.7199 -0.5701  0.0443
 4361TIP3    H134642   1.674   2.476   0.800 -0.7763 -0.2670  0.0111
 4361TIP3    H234643   1.650   2.370   0.695 -0.9447 -0.3272  0.1113
 4362TIP3   OH234644   3.858   4.247   1.396  0.3370 -0.5255 -0.1687
 4362TIP3    H134645   3.787   4.299   1.434  0.8950  0.2045 -0.1009
 4362TIP3    H234646   3.832   4.236   1.304 -1.4484 -3.0460  0.5343
 4363TIP3   OH234647   0.512   4.651   1.883  0.6097  0.3125 -0.1843
 4363TIP3    H134648   0.445   4.677   1.946  1.0146  0.5472  0.1531
 4363TIP3    H234649   0.575   4.601   1.933  1.0349  0.6635 -0.3608
 4364TIP3   OH234650   4.307   0.757   1.639 -0.2528 -0.1281 -0.1072
 4364TIP3    H134651   4.317   0.727   1.549  2.0290 -1.6525  0.5569
 4364TIP3    H234652   4.263   0.684   1.684  0.6977 -0.3701  0.4610
 4365TIP3   OH234653   2.675   1.913   7.580 -0.4124  0.2071  0.2193
 4365TIP3    H134654   2.595   1.893   7.628 -0.2175 -1.1591  0.0364
 4365TIP3    H234655   2.665   1.866   7.497  0.9764 -0.8276  0.5882
 4366TIP3   OH234656   2.523   5.165   8.364 -0.5245 -0.1569  0.0137
 4366TIP3    H134657   2.576   5.215   8.302  0.3187 -0.2993  0.6045
 4366TIP3    H234658   2.494   5.089   8.314 -0.0912 -0.1290 -0.2893
 4367TIP3   OH234659   5.035   4.067   7.581  0.0923 -0.2752  0.5743
 4367TIP3    H134660   5.069   4.112   7.504 -0.4470 -0.0245  0.4819
 4367TIP3    H234661   5.112   4.023   7.618  0.9303  1.6964  1.3634
 4368TIP3   OH234662   6.822   4.139   7.306 -0.5578  0.0552  0.4407
 4368TIP3    H134663   6.797   4.230   7.320  0.6023  0.9409 -2.5480
 4368TIP3    H234664   6.916   4.141   7.292 -0.6161 -1.4656 -0.4326
 4369TIP3   OH234665   2.189   5.680   8.215 -0.9347  0.0468  0.6924
 4369TIP3    H134666   2.208   5.602   8.267 -2.1325 -0.0661  0.9846
 4369TIP3    H234667   2.226   5.660   8.129  0.2513 -0.1381  1.2344
 4370TIP3   OH234668   5.369   1.358   1.679  0.4507  0.2879  0.3420
 4370TIP3    H134669   5.300   1.357   1.612  0.7993  2.8938 -0.1657
 4370TIP3    H234670   5.322   1.347   1.762 -0.3722  0.2604 -0.1178
 4371TIP3   OH234671   2.453   2.959   1.930  0.3323 -0.3041  0.4885
 4371TIP3    H134672   2.428   2.870   1.906  0.6624 -0.4041  0.5137
 4371TIP3    H234673   2.432   2.966   2.023 -3.5930  0.9763 -0.3225
 4372TIP3   OH234674   0.597   2.464   7.799 -0.0219  0.4639  0.5063
 4372TIP3    H134675   0.555   2.410   7.732  0.1204 -0.0487  0.8252
 4372TIP3    H234676   0.650   2.527   7.749 -0.8842  0.8980  0.1134
 4373TIP3   OH234677   5.884   5.437   0.379 -0.2838  0.6691  0.0202
 4373TIP3    H134678   5.923   5.365   0.427  0.8116  0.7491 -0.7184
 4373TIP3    H234679   5.951   5.464   0.316 -0.8855  1.9385 -0.1248
 4374TIP3   OH234680   0.128   4.260   7.961  0.0085  0.0327  0.0773
 4374TIP3    H134681   0.180   4.285   8.038  0.1121  0.6219 -0.1797
 4374TIP3    H234682   0.117   4.165   7.970  0.4848  0.0110  0.5326
 4375TIP3   OH234683   3.153   4.247   8.116  0.3619  0.0812  0.1676
 4375TIP3    H134684   3.248   4.247   8.128  0.2225 -0.5055  1.3901
 4375TIP3    H234685   3.128   4.339   8.123  0.5321 -0.0107  2.7510
 4376TIP3   OH234686   2.736   0.786   1.280  0.8213 -0.3710  0.4298
 4376TIP3    H134687   2.759   0.866   1.327 -0.5855 -0.5100  1.4243
 4376TIP3    H234688   2.713   0.724   1.349 -4.1884  0.2948 -0.2682
 4377TIP3   OH234689   5.465   4.790   2.233 -0.4408 -0.1028  0.1587
 4377TIP3    H134690   5.467   4.878   2.272  1.6190  0.8215 -1.7746
 4377TIP3    H234691   5.452   4.731   2.308 -0.3481  1.7467  1.7213
 4378TIP3   OH234692   0.250   0.937   0.204  0.6075  1.1731  0.5501
 4378TIP3    H134693   0.168   0.900   0.172  0.7139  1.5549 -0.1849
 4378TIP3    H234694   0.291   0.865   0.253  0.0766  0.8223  0.4832
 4379TIP3   OH234695   0.063   2.008   0.893  0.1297  0.0959  0.2089
 4379TIP3    H134696   0.011   2.038   0.818 -0.9673 -2.1574 -0.0325
 4379TIP3    H234697   0.001   2.008   0.966  0.5857  0.1142  0.5998
 4380TIP3   OH234698   1.420   0.403   1.715  0.0739 -0.1297  0.1007
 4380TIP3    H134699   1.391   0.480   1.765  0.0810  0.0205 -0.1237
 4380TIP3    H234700   1.515   0.402   1.725  0.4262  1.5545 -2.2106
 4381TIP3   OH234701   6.351   0.867   2.210 -0.4931 -0.2406 -0.1241
 4381TIP3    H134702   6.447   0.872   2.207 -0.3582 -1.6859  0.7903
 4381TIP3    H234703   6.333   0.809   2.284 -1.9665 -2.1537 -1.8593
 4382TIP3   OH234704   5.520   5.902   1.447 -0.0871 -0.0437  0.3896
 4382TIP3    H134705   5.433   5.937   1.467  0.5520  0.7225  2.0213
 4382TIP3    H234706   5.567   5.908   1.530  1.6719  0.0012 -0.5802
 4383TIP3   OH234707   1.925   1.263   2.255 -0.0938 -0.3355  0.7489
 4383TIP3    H134708   1.892   1.321   2.324  2.1717  0.9406  0.8388
 4383TIP3    H234709   1.895   1.303   2.173  1.9121  1.3810  0.7785
 4384TIP3   OH234710   5.204   4.257   1.939 -0.1277 -0.2218  0.2648
 4384TIP3    H134711   5.146   4.271   1.864 -1.1591  0.3781  1.1492
 4384TIP3    H234712   5.279   4.315   1.923 -0.9480  0.8777  0.3072
 4385TIP3   OH234713   5.439   6.176   0.707 -0.5406 -0.0418  0.6401
 4385TIP3    H134714   5.370   6.162   0.772 -0.5793 -0.1508  0.5751
 4385TIP3    H234715   5.421   6.262   0.670 -0.2098  0.2545  1.1542
 4386TIP3   OH234716   6.787   1.251   3.038 -0.6770  0.5363  0.2445
 4386TIP3    H134717   6.806   1.343   3.056 -1.8625  0.2807  3.4633
 4386TIP3    H234718   6.859   1.222   2.983  0.9578  2.8360  1.0130
 4387TIP3   OH234719   6.624   5.179   0.608 -0.0723 -0.4381  0.2015
 4387TIP3    H134720   6.577   5.261   0.588  0.8372 -0.1917 -0.9766
 4387TIP3    H234721   6.556   5.112   0.603 -0.5079  0.0340 -0.5486
 4388TIP3   OH234722   6.821   4.284   1.236 -0.3423  0.3260  0.0910
 4388TIP3    H134723   6.771   4.275   1.317 -0.9213  0.4184 -0.2542
 4388TIP3    H234724   6.891   4.219   1.244 -1.2828 -0.7272  0.0037
 4389TIP3   OH234725   5.090   0.374   6.573  0.3360  0.3333  0.2498
 4389TIP3    H134726   5.107   0.466   6.590 -1.1900  0.8120 -0.6693
 4389TIP3    H234727   5.009   0.373   6.522 -0.1561 -1.5672  0.9831
 4390TIP3   OH234728   2.146   0.402   7.746 -0.2050  0.3439  0.6912
 4390TIP3    H134729   2.212   0.472   7.752  1.7592 -1.3635  0.2184
 4390TIP3    H234730   2.078   0.438   7.689  0.5361  2.0073  0.7772
 4391TIP3   OH234731   1.340   2.321   6.655 -0.4284  0.7204 -0.1611
 4391TIP3    H134732   1.344   2.258   6.583 -0.4739  0.5150  0.0153
 4391TIP3    H234733   1.409   2.384   6.636 -0.6703  0.8651 -0.5739
 4392TIP3   OH234734   1.187   3.800   7.240  0.7760  0.4213  0.3650
 4392TIP3    H134735   1.128   3.859   7.287 -0.8040 -0.9083  0.1580
 4392TIP3    H234736   1.178   3.826   7.148  0.7006  0.3670  0.3573
 4393TIP3   OH234737   4.044   0.329   2.609 -0.0265  0.6366 -0.0527
 4393TIP3    H134738   3.971   0.287   2.563 -0.4745  0.9154  0.3909
 4393TIP3    H234739   4.084   0.386   2.544 -0.0696  0.3153 -0.3619
 4394TIP3   OH234740   4.876   2.853   7.859  0.5357 -0.1628 -0.1996
 4394TIP3    H134741   4.903   2.761   7.861  1.9348  0.2293 -0.0732
 4394TIP3    H234742   4.958   2.902   7.854 -0.2014  1.0731 -0.6488
 4395TIP3   OH234743   1.764   5.705   8.392  0.8956 -0.4264  0.0802
 4395TIP3    H134744   1.818   5.758   8.450  3.0989  2.1494 -3.8269
 4395TIP3    H234745   1.822   5.635   8.363  0.7901 -0.0995 -0.9770
 4396TIP3   OH234746   4.717   4.925   1.783  0.1403  0.1700  0.4348
 4396TIP3    H134747   4.783   4.867   1.746 -0.8842 -1.4082  0.9671
 4396TIP3    H234748   4.670   4.961   1.708 -0.2049 -0.9097  0.1284
 4397TIP3   OH234749   2.425   1.064   3.127 -0.0204 -0.1587  0.3662
 4397TIP3    H134750   2.334   1.093   3.136 -1.1065 -3.1105  0.0528
 4397TIP3    H234751   2.437   1.050   3.033 -0.0235 -1.8577  0.5810
 4398TIP3   OH234752   3.040   0.826   7.047 -0.1507  0.2703 -0.0450
 4398TIP3    H134753   2.988   0.884   6.992 -0.8148 -0.1470  0.1241
 4398TIP3    H234754   2.980   0.800   7.118  0.3571 -0.0441  0.2794
 4399TIP3   OH234755   2.781   3.861   8.444  0.0974  0.0623 -0.6970
 4399TIP3    H134756   2.873   3.879   8.467  0.4023  1.0761 -2.5225
 4399TIP3    H234757   2.759   3.929   8.380 -1.4851 -1.0309 -1.3597
 4400TIP3   OH234758   1.559   6.135   2.840  0.2234 -0.0078 -0.2464
 4400TIP3    H134759   1.514   6.112   2.759  1.6167 -0.8495 -0.8260
 4400TIP3    H234760   1.622   6.065   2.853  0.5830  0.5452  1.1340
 4401TIP3   OH234761   5.558   1.600   0.602 -0.2814  0.0928 -0.4380
 4401TIP3    H134762   5.641   1.638   0.576  0.5168 -1.1538  0.2043
 4401TIP3    H234763   5.495   1.672   0.594  0.3394  0.4481 -3.3576
 4402TIP3   OH234764   6.009   4.178   2.149  0.4883  0.2438 -0.3717
 4402TIP3    H134765   6.054   4.186   2.234  0.9102  1.3164 -0.6755
 4402TIP3    H234766   6.051   4.104   2.106  2.3847  1.5549 -0.8707
 4403TIP3   OH234767   6.423   2.021   6.245  1.0012 -0.3293 -0.0233
 4403TIP3    H134768   6.489   2.080   6.208  1.1959 -0.6159 -0.1406
 4403TIP3    H234769   6.400   2.060   6.329  2.4958 -1.0449  0.7635
 4404TIP3   OH234770   6.682   3.311   8.423  0.1668 -0.5963 -0.6529
 4404TIP3    H134771   6.627   3.244   8.464 -0.1913 -0.6265 -1.1677
 4404TIP3    H234772   6.764   3.310   8.473  0.4285 -1.9016 -1.0771
 4405TIP3   OH234773   1.230   0.177   7.511  0.7675  0.4603  0.6192
 4405TIP3    H134774   1.307   0.146   7.462  0.3684  2.6304 -1.5906
 4405TIP3    H234775   1.268   0.226   7.584  1.3977 -1.4064  1.6125
 4406TIP3   OH234776   6.251   4.631   8.436 -0.1110 -0.5711  0.0406
 4406TIP3    H134777   6.158   4.608   8.443 -0.2969  0.3269  0.7960
 4406TIP3    H234778   6.283   4.582   8.360 -0.5007 -3.1360  1.4130
 4407TIP3   OH234779   5.490   6.488   1.518 -0.8568 -0.2757 -0.3130
 4407TIP3    H134780   5.490   6.455   1.428  0.2197  1.5353 -1.0176
 4407TIP3    H234781   5.538   6.421   1.567 -1.3052 -1.2035 -1.0897
 4408TIP3   OH234782   4.052   6.488   6.851 -0.3188 -0.2935  0.0634
 4408TIP3    H134783   4.098   6.426   6.794  0.7877 -0.3314  0.9541
 4408TIP3    H234784   4.006   6.547   6.792 -0.0001 -0.9339 -0.8357
 4409TIP3   OH234785   0.335   2.113   1.099  0.7123 -0.6562 -0.1621
 4409TIP3    H134786   0.388   2.094   1.177  0.1078 -2.2108 -0.1043
 4409TIP3    H234787   0.252   2.069   1.115  0.7001 -1.2970 -1.8329
 4410TIP3   OH234788   2.180   2.770   7.212  0.0284 -0.1480 -0.4312
 4410TIP3    H134789   2.105   2.767   7.270 -0.3576  2.0155 -0.7200
 4410TIP3    H234790   2.253   2.795   7.268 -0.0463  0.4730 -0.6014
 4411TIP3   OH234791   5.989   6.056   2.243 -1.1178  0.1720 -0.0355
 4411TIP3    H134792   5.968   6.132   2.188  1.5791  1.6579  0.8106
 4411TIP3    H234793   5.946   6.075   2.327 -0.0424  1.0495  0.3340
 4412TIP3   OH234794   5.169   1.382   1.202  1.5432 -0.4278 -0.7535
 4412TIP3    H134795   5.183   1.288   1.196  2.7467 -0.3241  0.0889
 4412TIP3    H234796   5.077   1.395   1.177  2.1151 -1.4832 -3.7952
 4413TIP3   OH234797   3.458   1.229   0.368 -0.7575  0.7319 -0.6423
 4413TIP3    H134798   3.412   1.217   0.285  1.3506  1.0944 -1.9328
 4413TIP3    H234799   3.416   1.305   0.408  0.0918  2.4512 -2.8159
 4414TIP3   OH234800   5.902   2.597   1.832 -0.1493 -0.3559 -0.2308
 4414TIP3    H134801   5.839   2.526   1.820 -2.0628  1.1824  0.1812
 4414TIP3    H234802   5.903   2.613   1.927  0.7054 -0.1981 -0.2534
 4415TIP3   OH234803   5.151   6.000   0.080  0.1706 -0.5716 -0.0646
 4415TIP3    H134804   5.119   5.913   0.057 -0.1842 -0.5975  0.5143
 4415TIP3    H234805   5.236   5.984   0.120  0.3498 -0.6032 -0.4496
 4416TIP3   OH234806   6.492   4.422   2.499 -0.1583 -0.4435  0.0671
 4416TIP3    H134807   6.498   4.331   2.530 -1.7809  0.1436  2.4451
 4416TIP3    H234808   6.406   4.427   2.456  0.1563 -0.1534 -0.5335
 4417TIP3   OH234809   0.989   1.377   8.226 -0.3457  0.3099  0.5494
 4417TIP3    H134810   1.001   1.367   8.132  0.8177 -0.9746  0.8094
 4417TIP3    H234811   0.977   1.471   8.239 -0.0705  0.5511 -0.8223
 4418TIP3   OH234812   3.795   4.220   2.611 -0.2917  0.0338 -0.3235
 4418TIP3    H134813   3.761   4.237   2.699  0.9213  1.0888 -0.0438
 4418TIP3    H234814   3.879   4.176   2.626 -0.7190 -1.0481 -0.9877
 4419TIP3   OH234815   4.361   0.606   7.736 -0.4724  0.5548 -0.7325
 4419TIP3    H134816   4.319   0.569   7.813 -0.6625  0.1427 -1.0276
 4419TIP3    H234817   4.421   0.673   7.770 -0.3449  0.1774 -0.2085
 4420TIP3   OH234818   3.488   0.888   1.655  0.6568  0.6237  0.1581
 4420TIP3    H134819   3.469   0.980   1.639 -1.9293  0.1723  0.1434
 4420TIP3    H234820   3.405   0.843   1.639  1.2458 -1.4472  2.2760
 4421TIP3   OH234821   1.712   6.432   1.953  0.2290 -0.6666 -0.1815
 4421TIP3    H134822   1.804   6.405   1.959  1.4184  2.7977 -0.6560
 4421TIP3    H234823   1.701   6.494   2.024 -1.5877 -0.5256 -0.5600
 4422TIP3   OH234824   4.669   6.645   0.732  0.4314 -0.0591  0.2377
 4422TIP3    H134825   4.665   6.590   0.811 -4.0156  2.5888  2.2310
 4422TIP3    H234826   4.675   6.734   0.765  0.9305  1.0378 -2.5632
 4423TIP3   OH234827   1.212   2.086   8.497  0.1009  0.3325 -0.6364
 4423TIP3    H134828   1.161   2.099   8.417  0.1446 -0.5999 -0.8293
 4423TIP3    H234829   1.222   1.991   8.504  2.3267  0.4887 -0.9353
 4424TIP3   OH234830   5.026   4.017   0.680 -0.1477  0.2176  0.4344
 4424TIP3    H134831   4.995   4.081   0.744 -0.8064 -0.6955  1.0654
 4424TIP3    H234832   5.080   3.957   0.730 -0.8021 -0.6018  0.1867
 4425TIP3   OH234833   6.408   5.441   0.423  0.4808 -0.0296  0.1043
 4425TIP3    H134834   6.475   5.423   0.489 -0.3188  0.3545  1.0288
 4425TIP3    H234835   6.366   5.521   0.452  1.4528  1.3141 -1.9488
 4426TIP3   OH234836   6.141   6.250   1.970 -0.4510  0.3678  0.2695
 4426TIP3    H134837   6.204   6.189   2.007  0.6033  1.2205 -0.0594
 4426TIP3    H234838   6.184   6.335   1.975 -0.1687  0.5411 -2.9891
 4427TIP3   OH234839   1.395   4.678   7.635  0.4560 -0.3835  0.1996
 4427TIP3    H134840   1.328   4.656   7.569  0.7808 -0.2131 -0.1912
 4427TIP3    H234841   1.424   4.766   7.611 -0.1168  0.0798  1.1559
 4428TIP3   OH234842   4.783   4.962   1.470  0.0757 -0.2235  0.1828
 4428TIP3    H134843   4.863   4.948   1.521  0.4474 -0.6531 -0.4974
 4428TIP3    H234844   4.731   4.883   1.485 -0.2762  0.1101  0.7222
 4429TIP3   OH234845   6.849   1.525   7.965  0.8013 -0.4410  0.2317
 4429TIP3    H134846   6.937   1.562   7.968  1.2332 -1.4600  0.4692
 4429TIP3    H234847   6.850   1.455   8.031 -0.2868 -0.2524  0.4692
 4430TIP3   OH234848   4.237   3.280   0.893 -0.3133  0.4860 -0.4568
 4430TIP3    H134849   4.147   3.305   0.872 -0.4512  0.3538 -0.0384
 4430TIP3    H234850   4.257   3.207   0.834 -1.0883 -0.6388  0.6124
 4431TIP3   OH234851   3.183   1.262   1.195  0.0677 -0.2579 -0.5012
 4431TIP3    H134852   3.100   1.305   1.175  0.3922 -0.8479 -3.5965
 4431TIP3    H234853   3.172   1.173   1.163  0.9208 -1.2822  1.8260
 4432TIP3   OH234854   5.054   4.376   2.377  0.3428 -0.3385 -0.4346
 4432TIP3    H134855   5.023   4.285   2.379 -0.5931 -0.0245  1.8337
 4432TIP3    H234856   4.980   4.426   2.345  0.7780 -0.3178 -1.4440
 4433TIP3   OH234857   6.283   5.386   2.633 -0.6873  0.1530  0.7299
 4433TIP3    H134858   6.309   5.339   2.712 -0.0985 -0.6024  0.0989
 4433TIP3    H234859   6.356   5.373   2.572 -0.9466  1.0779  0.2071
 4434TIP3   OH234860   1.633   3.529   0.399 -0.0949  0.7372 -0.0659
 4434TIP3    H134861   1.646   3.435   0.406 -1.0918  0.4532 -1.5272
 4434TIP3    H234862   1.720   3.565   0.383  0.2070 -0.0158 -0.1283
 4435TIP3   OH234863   4.685   1.710   2.698  0.5598  0.2327 -0.4159
 4435TIP3    H134864   4.660   1.657   2.623 -0.5169  0.1009  0.0082
 4435TIP3    H234865   4.611   1.702   2.759 -0.1675  3.0325 -0.7535
 4436TIP3   OH234866   4.872   3.832   1.681  0.0243  0.1286  0.2116
 4436TIP3    H134867   4.793   3.791   1.646 -0.4613  0.0444  1.3501
 4436TIP3    H234868   4.934   3.832   1.608 -0.8865 -0.1722 -0.5821
 4437TIP3   OH234869   1.190   5.805   1.106 -0.4485 -0.6100 -0.2636
 4437TIP3    H134870   1.268   5.858   1.088  0.8581 -1.4801  2.3294
 4437TIP3    H234871   1.175   5.757   1.025  0.7572  0.7478 -1.3418
 4438TIP3   OH234872   4.040   5.416   7.106  0.0698  0.0560 -0.1161
 4438TIP3    H134873   4.026   5.377   7.020 -0.9656  0.4367 -0.1444
 4438TIP3    H234874   3.954   5.450   7.130  0.3861  0.0907  1.0041
 4439TIP3   OH234875   4.615   3.662   1.670  0.1696 -0.4066 -0.3730
 4439TIP3    H134876   4.525   3.631   1.665 -0.5202  1.4191 -0.0323
 4439TIP3    H234877   4.657   3.604   1.733 -0.8878 -0.9918 -0.1799
 4440TIP3   OH234878   4.640   4.232   1.027  0.0547 -0.3615 -0.2592
 4440TIP3    H134879   4.699   4.201   1.096  1.1243  0.1482 -0.9220
 4440TIP3    H234880   4.681   4.313   0.995 -0.8495 -0.1623 -0.9453
 4441TIP3   OH234881   5.745   4.564   8.577 -0.3480  0.7871  0.0853
 4441TIP3    H134882   5.805   4.603   8.641  0.5811  1.6277 -1.2545
 4441TIP3    H234883   5.658   4.577   8.616  0.0624  2.7352  0.4802
 4442TIP3   OH234884   3.692   3.757   1.245  0.4786  0.3405  0.7478
 4442TIP3    H134885   3.635   3.786   1.316  0.1351 -1.7212  1.4081
 4442TIP3    H234886   3.777   3.794   1.265 -0.5506  3.5787 -0.3158
 4443TIP3   OH234887   1.119   0.231   1.597 -0.1748  0.1559  0.6869
 4443TIP3    H134888   1.086   0.153   1.642 -1.9733  1.4144  1.6466
 4443TIP3    H234889   1.079   0.229   1.510  0.0068 -0.1243  0.6092
 4444TIP3   OH234890   3.717   3.611   1.682  0.3692  0.0487  0.3787
 4444TIP3    H134891   3.750   3.535   1.730  0.7371  0.4094  0.7129
 4444TIP3    H234892   3.728   3.589   1.590 -1.7447 -1.2728  0.3910
 4445TIP3   OH234893   1.747   1.630   1.737  0.1015 -0.2404  0.1613
 4445TIP3    H134894   1.653   1.625   1.721  0.0739  0.7645 -0.0225
 4445TIP3    H234895   1.767   1.724   1.737  0.6449 -0.2807  2.8592
 4446TIP3   OH234896   4.538   5.621   0.418  0.1841 -0.1562  0.0845
 4446TIP3    H134897   4.539   5.708   0.378 -2.3061 -0.4026 -0.7045
 4446TIP3    H234898   4.600   5.569   0.367  0.3162  0.6803 -0.6143
 4447TIP3   OH234899   5.754   3.650   1.845 -0.1735  0.6226  0.2568
 4447TIP3    H134900   5.715   3.618   1.927  1.1916  1.1455  1.1408
 4447TIP3    H234901   5.797   3.574   1.808  1.1372  0.8673  1.2069
 4448TIP3   OH234902   6.800   3.710   1.637 -0.2094 -0.3103  0.5084
 4448TIP3    H134903   6.841   3.794   1.616 -0.5671 -0.1421  0.4730
 4448TIP3    H234904   6.858   3.644   1.598 -0.1586 -0.0631  0.1624
 4449TIP3   OH234905   2.326   0.398   8.065  0.3403  0.4895 -0.7976
 4449TIP3    H134906   2.336   0.485   8.025  2.5547  0.0512 -1.3680
 4449TIP3    H234907   2.297   0.342   7.993 -1.2920  0.7485 -0.3818
 4450TIP3   OH234908   1.224   3.395   7.353 -0.5153 -0.2987 -0.8794
 4450TIP3    H134909   1.250   3.321   7.408  0.4111  0.4789 -0.2469
 4450TIP3    H234910   1.149   3.433   7.398  0.6392  0.7369  0.2603
 4451TIP3   OH234911   0.073   4.799   1.860  0.4471 -0.5315 -0.0803
 4451TIP3    H134912   0.103   4.847   1.937  2.6234 -0.0404 -1.1349
 4451TIP3    H234913   0.073   4.707   1.887  1.7610 -0.4230  0.3686
 4452TIP3   OH234914   4.333   3.125   3.145 -0.0802 -0.5692 -0.4053
 4452TIP3    H134915   4.369   3.213   3.147  1.3907 -1.1413 -0.2234
 4452TIP3    H234916   4.408   3.069   3.126 -0.9951 -1.7845 -0.5861
 4453TIP3   OH234917   2.396   0.771   6.956  0.3335  0.3466 -0.1849
 4453TIP3    H134918   2.431   0.799   7.041 -0.7860  0.9497  0.1041
 4453TIP3    H234919   2.472   0.772   6.898  1.3745 -1.2830  1.0593
 4454TIP3   OH234920   2.008   2.965   1.368  0.4877 -0.0994  0.3947
 4454TIP3    H134921   2.083   3.024   1.375  1.8706 -1.6562 -0.6288
 4454TIP3    H234922   2.011   2.932   1.278 -0.5879 -1.2843  0.7619
 4455TIP3   OH234923   1.758   1.406   2.426 -0.5036 -0.2514 -1.0979
 4455TIP3    H134924   1.678   1.457   2.417 -1.5998 -0.9139  3.0056
 4455TIP3    H234925   1.827   1.472   2.438 -1.1428  0.3242 -0.5020
 4456TIP3   OH234926   1.586   6.196   1.653  0.0006  0.4880  0.2454
 4456TIP3    H134927   1.622   6.146   1.726  1.4528  1.7623  0.4484
 4456TIP3    H234928   1.644   6.271   1.644 -0.5062  0.7049 -1.8129
 4457TIP3   OH234929   3.304   6.271   2.961  0.0953 -0.5851 -0.6816
 4457TIP3    H134930   3.268   6.196   3.007  0.5170 -0.3370  0.0747
 4457TIP3    H234931   3.251   6.346   2.991  0.6787 -0.3498 -0.2082
 4458TIP3   OH234932   2.287   5.299   2.411  0.1665 -0.0807  0.0179
 4458TIP3    H134933   2.366   5.353   2.403  0.9476 -1.1463  0.2565
 4458TIP3    H234934   2.284   5.250   2.329  0.1878 -0.5988  0.3212
 4459TIP3   OH234935   1.835   4.521   7.689  0.3202  0.2982 -0.3197
 4459TIP3    H134936   1.810   4.436   7.654  0.8996  0.0994 -0.2573
 4459TIP3    H234937   1.896   4.557   7.625 -0.0126  0.7235 -0.4074
 4460TIP3   OH234938   4.814   6.442   8.198 -0.0650  0.2463 -0.6651
 4460TIP3    H134939   4.774   6.518   8.240  0.5472 -0.0866  0.5581
 4460TIP3    H234940   4.888   6.478   8.150  0.5717  0.3674  0.3829
 4461TIP3   OH234941   0.907   4.584   1.560  0.1539  0.3120  0.2695
 4461TIP3    H134942   0.950   4.534   1.490 -1.1351 -1.0084  0.3622
 4461TIP3    H234943   0.828   4.618   1.518 -0.6510 -0.5283  1.0835
 4462TIP3   OH234944   6.422   2.432   8.130 -0.4773  0.0451  0.5090
 4462TIP3    H134945   6.481   2.397   8.063 -0.2669 -0.5075  0.9765
 4462TIP3    H234946   6.479   2.482   8.188 -0.3765 -0.8988  1.2421
 4463TIP3   OH234947   2.029   1.274   2.590 -0.4410 -0.6964 -0.7379
 4463TIP3    H134948   2.121   1.271   2.617 -1.0614 -0.2732  1.6107
 4463TIP3    H234949   1.987   1.332   2.653 -2.1350  0.1295 -2.5025
 4464TIP3   OH234950   4.393   3.097   0.300  0.1537 -1.0369  0.3854
 4464TIP3    H134951   4.480   3.069   0.327  0.9838  1.4299  0.4745
 4464TIP3    H234952   4.381   3.058   0.213  1.9650 -0.2363 -0.2601
 4465TIP3   OH234953   0.538   5.240   3.288 -0.2635  0.3488  0.2072
 4465TIP3    H134954   0.613   5.247   3.228  0.3058 -0.6552  0.7864
 4465TIP3    H234955   0.572   5.192   3.363 -1.8782 -1.4642 -0.1529
 4466TIP3   OH234956   5.464   2.960   8.371  0.1322 -0.2505  0.7130
 4466TIP3    H134957   5.514   3.009   8.307  0.2370  0.7741  1.5429
 4466TIP3    H234958   5.452   3.021   8.444 -5.3421  0.9717 -0.7504
 4467TIP3   OH234959   0.314   1.192   2.523  0.2220  1.0285 -0.5515
 4467TIP3    H134960   0.392   1.227   2.481  0.7035 -1.9539 -2.4413
 4467TIP3    H234961   0.343   1.170   2.612  1.3339  0.6463 -0.9950
 4468TIP3   OH234962   2.630   0.310   0.815 -0.0678  1.0720 -0.0248
 4468TIP3    H134963   2.565   0.268   0.871 -0.8563  2.3006  0.0268
 4468TIP3    H234964   2.657   0.388   0.865  0.8614  1.0034 -0.3944
 4469TIP3   OH234965   1.126   4.472   2.512  0.0269  0.5116 -0.2718
 4469TIP3    H134966   1.034   4.493   2.496 -0.2511 -1.1456 -1.0742
 4469TIP3    H234967   1.123   4.388   2.560  1.1219 -0.5891 -2.0313
 4470TIP3   OH234968   1.560   1.337   0.900 -0.4056 -0.1635  0.1689
 4470TIP3    H134969   1.471   1.324   0.934  0.3237 -1.1181  1.8183
 4470TIP3    H234970   1.599   1.250   0.901  0.4746  0.1984 -0.8252
 4471TIP3   OH234971   4.083   4.952   2.041  0.5213 -0.8855  0.1631
 4471TIP3    H134972   4.172   4.983   2.026  0.5347 -1.0471 -0.0874
 4471TIP3    H234973   4.065   4.974   2.133 -0.2647  1.9035 -0.5685
 4472TIP3   OH234974   2.792   1.845   0.027  0.0776  0.1536  0.2238
 4472TIP3    H134975   2.743   1.862  -0.053  2.2320  0.8754 -1.0263
 4472TIP3    H234976   2.825   1.756   0.018 -1.9271 -0.8093  1.6415
 4473TIP3   OH234977   6.362   2.478   1.752 -0.2140  0.0035 -0.1427
 4473TIP3    H134978   6.359   2.526   1.835  0.8939 -2.0096  1.1506
 4473TIP3    H234979   6.291   2.516   1.700  0.4858  2.8552  0.8273
 4474TIP3   OH234980   3.314   6.814   1.313 -0.0833  0.3617 -0.3153
 4474TIP3    H134981   3.278   6.814   1.402  2.4282  0.0682  0.7793
 4474TIP3    H234982   3.319   6.907   1.290 -0.0518  0.4800  0.1554
 4475TIP3   OH234983   4.734   2.713   7.407  0.5107  0.3433 -0.2363
 4475TIP3    H134984   4.760   2.800   7.437  1.1113  0.6951 -1.6998
 4475TIP3    H234985   4.747   2.715   7.312  0.9301 -1.4619 -0.2611
 4476TIP3   OH234986   3.210   6.775   1.837  0.2647 -0.1284 -0.1544
 4476TIP3    H134987   3.193   6.870   1.840  0.7151 -0.0005 -1.1649
 4476TIP3    H234988   3.123   6.736   1.831  0.0579  0.2023  0.5723
 4477TIP3   OH234989   5.704   4.297   1.306  0.6441  0.0167  0.4464
 4477TIP3    H134990   5.624   4.348   1.313  1.7598  1.8498  0.4621
 4477TIP3    H234991   5.708   4.247   1.388 -0.4477 -0.0810  0.4531
 4478TIP3   OH234992   2.029   3.622   0.013 -0.3193  0.0383  0.1164
 4478TIP3    H134993   2.096   3.625  -0.055 -0.1480 -1.5095  0.1695
 4478TIP3    H234994   2.079   3.625   0.095 -0.3478 -0.4025  0.1545
 4479TIP3   OH234995   0.651   4.426   8.036 -0.0222  0.7236  0.2612
 4479TIP3    H134996   0.682   4.377   8.112 -0.0958 -1.9668 -1.2896
 4479TIP3    H234997   0.730   4.460   7.995  0.1272  1.0298  0.7976
 4480TIP3   OH234998   0.021   2.512   0.741  0.0863  0.2294  0.0710
 4480TIP3    H134999  -0.039   2.449   0.702 -0.1970 -1.2416  2.6201
 4480TIP3    H235000   0.086   2.458   0.787  0.4727  1.7609  1.4335
 4481TIP3   OH235001   1.793   0.067   8.268  0.4242  0.4462  0.3429
 4481TIP3    H135002   1.798   0.033   8.357 -1.7924 -1.4077 -0.1524
 4481TIP3    H235003   1.824  -0.005   8.213  0.3531  1.0187 -0.4701
 4482TIP3   OH235004   3.075   1.954   6.872  0.2901  0.7371  0.1274
 4482TIP3    H135005   3.036   1.962   6.785 -0.9359  0.2437  0.6101
 4482TIP3    H235006   3.057   1.864   6.899  0.6099  0.8986  0.9146
 4483TIP3   OH235007   3.023   1.474   8.411 -0.5839  0.2716  0.1521
 4483TIP3    H135008   3.001   1.526   8.333  2.6753 -0.5839 -1.5279
 4483TIP3    H235009   3.070   1.398   8.376 -0.8185 -1.2436  2.8760
 4484TIP3   OH235010   0.152   4.454   0.668  0.5056 -0.3941 -0.2882
 4484TIP3    H135011   0.230   4.402   0.650  0.5967  0.3006 -2.1739
 4484TIP3    H235012   0.145   4.513   0.592  0.3615  2.2928  1.6731
 4485TIP3   OH235013   0.778   6.776   0.497  0.3376 -0.1882  0.0423
 4485TIP3    H135014   0.781   6.865   0.531 -2.0704 -0.2178  0.4838
 4485TIP3    H235015   0.831   6.779   0.417 -1.6199  2.2914 -1.3081
 4486TIP3   OH235016   3.540   6.177   1.408  0.0986 -0.1450  0.0345
 4486TIP3    H135017   3.570   6.100   1.455 -1.4508  0.2490  1.7859
 4486TIP3    H235018   3.546   6.248   1.472 -1.1594  0.6131 -0.6543
 4487TIP3   OH235019   4.158   4.200   0.211  0.2467 -0.1042 -0.1239
 4487TIP3    H135020   4.146   4.120   0.160  1.3652 -0.5908  0.3264
 4487TIP3    H235021   4.231   4.179   0.270  0.9746  1.4567 -0.4398
 4488TIP3   OH235022   3.969   1.642   2.796  0.0842 -0.3268  0.5526
 4488TIP3    H135023   3.915   1.704   2.844  1.1184  0.2335  1.0184
 4488TIP3    H235024   3.992   1.574   2.859  0.6739 -0.0792  0.6131
 4489TIP3   OH235025   3.826   5.095   7.659  0.0752  0.3434 -0.5811
 4489TIP3    H135026   3.833   5.171   7.602  1.8308  1.6885  1.2941
 4489TIP3    H235027   3.780   5.128   7.737 -1.3456 -1.1779 -0.7235
 4490TIP3   OH235028   4.933   1.330   0.418 -0.4382  0.4126 -0.3423
 4490TIP3    H135029   4.895   1.244   0.402 -0.7413  0.0165  2.1977
 4490TIP3    H235030   5.025   1.312   0.440 -0.0528  0.9293 -1.4215
 4491TIP3   OH235031   2.049   2.509   0.066  0.1864  0.4406 -0.3704
 4491TIP3    H135032   2.052   2.428   0.117  0.9888  0.4246 -0.4177
 4491TIP3    H235033   2.127   2.505   0.011 -1.0563  0.0961 -2.1734
 4492TIP3   OH235034   0.926   0.444   1.090  0.1608  0.3029 -0.3991
 4492TIP3    H135035   0.872   0.521   1.108 -1.6305 -0.6987 -1.1730
 4492TIP3    H235036   0.868   0.385   1.041  1.3348 -1.6771  0.4411
 4493TIP3   OH235037   6.176   0.695   8.137 -0.2436  0.0621  0.1462
 4493TIP3    H135038   6.101   0.754   8.132  1.1052  1.7641 -0.7946
 4493TIP3    H235039   6.210   0.707   8.226 -0.9372 -0.5594  0.5050
 4494TIP3   OH235040   1.654   1.239   7.521  0.0113 -0.1921  0.3245
 4494TIP3    H135041   1.734   1.284   7.550 -0.7310  1.5006 -0.1215
 4494TIP3    H235042   1.614   1.207   7.602  0.2880  0.4340  0.7195
 4495TIP3   OH235043   4.119   3.921   0.902 -0.3202  0.7172  0.2270
 4495TIP3    H135044   4.185   3.856   0.925 -1.8002 -0.6320  0.9059
 4495TIP3    H235045   4.097   3.903   0.810 -0.6629  0.2820  0.3877
 4496TIP3   OH235046   2.880   6.476   2.367 -0.7994 -0.2298  0.5252
 4496TIP3    H135047   2.955   6.418   2.351  0.4520  1.4084  0.2028
 4496TIP3    H235048   2.812   6.418   2.399  0.0265 -2.0687 -0.8396
 4497TIP3   OH235049   3.038   5.271   8.383  0.0581 -0.2754 -0.2293
 4497TIP3    H135050   3.053   5.195   8.440 -1.0969 -1.2954 -1.2103
 4497TIP3    H235051   3.071   5.345   8.433 -0.6416 -1.1618  1.6749
 4498TIP3   OH235052   5.046   5.023   7.915  0.4907  0.2899 -0.7451
 4498TIP3    H135053   5.058   5.071   7.833 -1.7971 -0.0210 -1.3371
 4498TIP3    H235054   4.951   5.022   7.929  0.6706 -1.4524  0.8161
 4499TIP3   OH235055   5.715   1.748   8.390 -0.4064 -0.2624  0.0599
 4499TIP3    H135056   5.719   1.671   8.447  0.7028 -1.0122 -0.9892
 4499TIP3    H235057   5.684   1.714   8.306 -1.2889  0.6976 -0.0139
 4500TIP3   OH235058   2.534   2.336   2.251 -0.1638 -0.3883  0.0216
 4500TIP3    H135059   2.559   2.279   2.179  0.7993  0.5575 -0.4289
 4500TIP3    H235060   2.608   2.330   2.312 -0.7273 -0.7618  0.6802
 4501TIP3   OH235061   6.359   2.070   0.377  0.1100  0.0463  0.0373
 4501TIP3    H135062   6.349   1.985   0.420 -1.1435  1.1226  2.0368
 4501TIP3    H235063   6.271   2.107   0.376  0.5143  1.0577 -1.4508
 4502TIP3   OH235064   2.360   1.883   7.325 -0.4317  0.0433  0.1152
 4502TIP3    H135065   2.356   1.955   7.262 -0.2579  0.7748  0.9055
 4502TIP3    H235066   2.431   1.827   7.294  1.2522  1.6346  0.8819
 4503TIP3   OH235067   5.167   4.945   2.145  0.5813  0.6380  0.5151
 4503TIP3    H135068   5.235   4.879   2.158 -0.4421 -0.3080  1.2556
 4503TIP3    H235069   5.190   4.988   2.063  2.3579  0.7021  1.0081
 4504TIP3   OH235070   1.042   6.880   1.671  0.0764 -0.5088  0.0835
 4504TIP3    H135071   1.060   6.847   1.583  0.5160 -0.0298 -0.0107
 4504TIP3    H235072   1.032   6.801   1.724  2.3850 -0.8457  0.1261
 4505TIP3   OH235073   3.465   3.782   7.630  0.3187 -0.0164 -0.4200
 4505TIP3    H135074   3.438   3.805   7.719  0.9400  1.1474 -0.5142
 4505TIP3    H235075   3.402   3.826   7.573 -1.0487 -2.0276 -0.5873
 4506TIP3   OH235076   3.238   0.113   1.965  0.0923 -0.1158  0.3183
 4506TIP3    H135077   3.296   0.188   1.952 -1.4112  0.8266 -1.5600
 4506TIP3    H235078   3.223   0.110   2.059  0.9210  1.3879  0.5280
 4507TIP3   OH235079   3.188   4.841   2.243  0.0943  0.2239 -0.6173
 4507TIP3    H135080   3.148   4.928   2.232  0.0970  0.4200  0.7819
 4507TIP3    H235081   3.123   4.791   2.292  1.4351  0.5093  1.6071
 4508TIP3   OH235082   2.423   3.099   0.977 -0.3330 -0.2851 -0.3758
 4508TIP3    H135083   2.475   3.044   1.034 -0.2349 -1.5711 -1.6552
 4508TIP3    H235084   2.471   3.182   0.974  0.6396 -0.8185 -0.0537
 4509TIP3   OH235085   1.097   5.429   8.572 -0.7690 -0.6302  0.2364
 4509TIP3    H135086   1.118   5.411   8.480  1.2426  0.5831  0.3982
 4509TIP3    H235087   1.160   5.496   8.598 -1.3212 -0.9160  2.5028
 4510TIP3   OH235088   2.610   0.602   2.563  0.5522 -0.0015 -0.0480
 4510TIP3    H135089   2.667   0.657   2.616  0.6143  0.8317 -0.9360
 4510TIP3    H235090   2.660   0.521   2.550 -0.6002 -1.4477  3.4632
 4511TIP3   OH235091   4.908   0.761   1.809  0.0271 -0.8085  0.0276
 4511TIP3    H135092   4.850   0.765   1.733  1.4653 -0.8185 -1.1121
 4511TIP3    H235093   4.905   0.670   1.837 -0.8081 -0.7240  0.2631
 4512TIP3   OH235094   2.270   5.473   1.760 -0.0255  0.9308  0.4362
 4512TIP3    H135095   2.274   5.383   1.792  0.1655 -0.0789 -2.1809
 4512TIP3    H235096   2.178   5.498   1.771 -0.2838  0.0548  0.3602
 4513TIP3   OH235097   2.748   1.427   1.200  0.3159 -0.0750  0.2374
 4513TIP3    H135098   2.685   1.498   1.187 -0.8563 -1.3103 -1.2980
 4513TIP3    H235099   2.742   1.406   1.293  0.9770  2.0665  0.7983
 4514TIP3   OH235100   3.819   1.737   1.301  0.8951  0.3068 -0.0416
 4514TIP3    H135101   3.888   1.800   1.319  0.8899  0.6532 -1.1777
 4514TIP3    H235102   3.783   1.762   1.216 -2.1930  1.5288  1.4489
 4515TIP3   OH235103   2.030   5.279   0.303  0.1907  0.2537 -0.8362
 4515TIP3    H135104   1.954   5.273   0.361 -1.5572 -0.1010 -3.0486
 4515TIP3    H235105   2.104   5.249   0.357 -1.0716  1.3331  1.6061
 4516TIP3   OH235106   2.685   1.152   1.103 -0.2568  0.1221 -0.6403
 4516TIP3    H135107   2.691   1.222   1.039  0.8555  0.2262 -0.4423
 4516TIP3    H235108   2.698   1.196   1.188 -0.0415 -0.2452 -0.4781
 4517TIP3   OH235109   2.826   2.363   1.441  0.0309  0.6089  0.0346
 4517TIP3    H135110   2.913   2.396   1.419  0.1029  1.0101  0.8554
 4517TIP3    H235111   2.813   2.390   1.532 -0.6966  0.0053  0.1195
 4518TIP3   OH235112   5.633   2.393   7.330  0.2068  0.4402 -0.1178
 4518TIP3    H135113   5.631   2.362   7.239 -1.1141  1.8989 -0.6302
 4518TIP3    H235114   5.542   2.387   7.359  0.1275  2.4494  0.1947
 4519TIP3   OH235115   6.336   5.437   0.721  0.5392 -0.1668 -0.4222
 4519TIP3    H135116   6.272   5.501   0.691 -0.7413 -0.3370  1.7244
 4519TIP3    H235117   6.311   5.356   0.677 -0.2646 -0.0451 -0.2192
 4520TIP3   OH235118   1.024   0.321   1.313  0.6132 -0.3356 -0.9786
 4520TIP3    H135119   0.946   0.311   1.367  1.1609  2.2854  0.4662
 4520TIP3    H235120   0.990   0.349   1.228 -0.0578  0.4424 -0.4705
 4521TIP3   OH235121   6.089   6.914   2.832  0.1625  0.3004  0.2195
 4521TIP3    H135122   6.110   6.821   2.826 -0.7621  0.1589 -1.1501
 4521TIP3    H235123   6.007   6.923   2.785  0.1864  1.8044  0.4239
 4522TIP3   OH235124   2.346   2.433   7.730 -0.2830 -0.5294 -0.8500
 4522TIP3    H135125   2.253   2.424   7.706 -0.7447  0.9219  0.2279
 4522TIP3    H235126   2.368   2.351   7.773 -1.2132 -0.7289 -0.7349
 4523TIP3   OH235127   3.508   2.751   1.946  0.7136 -0.2140  0.4571
 4523TIP3    H135128   3.519   2.763   2.041 -0.4230 -3.0502  1.0387
 4523TIP3    H235129   3.544   2.664   1.929  1.1947  0.3772 -1.8293
 4524TIP3   OH235130   2.802   4.469   7.124  0.3557  0.1123  0.6330
 4524TIP3    H135131   2.819   4.561   7.105  0.0656  0.3184  1.3171
 4524TIP3    H235132   2.823   4.423   7.043  5.1010  0.2082  1.5021
 4525TIP3   OH235133   1.871   6.417   1.272 -0.4583  0.5915  0.3218
 4525TIP3    H135134   1.794   6.471   1.257 -0.5987  0.5311  0.7926
 4525TIP3    H235135   1.919   6.462   1.342  0.0977  0.7945 -0.1843
 4526TIP3   OH235136   5.154   1.782   7.777  0.5831 -0.3240  0.1983
 4526TIP3    H135137   5.173   1.709   7.837 -0.3327 -0.9269 -0.2280
 4526TIP3    H235138   5.076   1.754   7.729  0.5942  0.6743 -0.4241
 4527TIP3   OH235139   5.491   2.050   0.160 -0.3304  0.3406  0.0649
 4527TIP3    H135140   5.562   2.092   0.111 -1.3739 -0.4709 -2.3085
 4527TIP3    H235141   5.411   2.090   0.125 -1.2541 -2.1420 -0.9077
 4528TIP3   OH235142   5.461   2.419   8.228 -0.3688  0.2067 -0.0035
 4528TIP3    H135143   5.418   2.334   8.220  0.3574  0.0008 -2.4513
 4528TIP3    H235144   5.389   2.482   8.232 -0.9242 -0.4695  2.2375
 4529TIP3   OH235145   4.401   6.336   1.612 -0.5441  0.2715  0.2293
 4529TIP3    H135146   4.350   6.257   1.629 -0.9312  0.5253  0.2870
 4529TIP3    H235147   4.453   6.316   1.534 -0.8415  0.0535  0.0854
 4530TIP3   OH235148   4.628   0.400   7.787 -0.1046  0.3871  0.0686
 4530TIP3    H135149   4.723   0.386   7.791 -0.1993 -1.0152 -1.7385
 4530TIP3    H235150   4.618   0.493   7.807  1.5687  0.4254  1.0087
 4531TIP3   OH235151   5.330   1.962   1.949  0.5220  0.1975 -0.1428
 4531TIP3    H135152   5.297   1.973   1.860 -0.5883  1.2818  0.3764
 4531TIP3    H235153   5.406   2.019   1.953  1.7015 -1.2456 -0.9180
 4532TIP3   OH235154   2.105   5.496   2.262  0.3038 -0.2616 -0.0662
 4532TIP3    H135155   2.063   5.431   2.207  0.1193 -0.0792 -0.1437
 4532TIP3    H235156   2.157   5.549   2.202  1.2381 -0.9332  0.1193
 4533TIP3   OH235157   6.215   6.759   8.212 -0.0400  0.3239  0.6651
 4533TIP3    H135158   6.203   6.850   8.186 -0.6747  0.7413  2.3064
 4533TIP3    H235159   6.156   6.710   8.155 -0.1703  1.0100  0.1991
 4534TIP3   OH235160   5.583   2.508   1.587 -0.0191 -0.0788 -0.3638
 4534TIP3    H135161   5.488   2.505   1.595  0.0763  0.7620  1.5909
 4534TIP3    H235162   5.615   2.451   1.657  0.9101  1.1910  0.2916
 4535TIP3   OH235163   6.088   3.672   8.414 -0.2548  0.0611 -0.0378
 4535TIP3    H135164   6.152   3.744   8.415  0.8102 -0.8450  1.4692
 4535TIP3    H235165   6.003   3.716   8.412  0.3848  1.3493 -0.1031
 4536TIP3   OH235166   0.515   6.374   2.369  0.2406 -0.0601  0.3269
 4536TIP3    H135167   0.553   6.349   2.453  2.2622 -0.4217 -0.6331
 4536TIP3    H235168   0.423   6.350   2.376  0.2458  0.3576  2.5912
 4537TIP3   OH235169   4.304   6.874   1.146 -0.0869 -0.2923  0.0140
 4537TIP3    H135170   4.365   6.802   1.130  1.3096  1.1695 -1.5734
 4537TIP3    H235171   4.260   6.887   1.063 -0.0239  0.9302  0.1526
 4538TIP3   OH235172   5.631   3.875   7.752 -0.1500  0.3713 -0.6781
 4538TIP3    H135173   5.574   3.826   7.811  0.1814  0.6286 -0.1459
 4538TIP3    H235174   5.720   3.852   7.779  0.0047  0.6312 -0.9568
 4539TIP3   OH235175   2.710   5.333   7.122  0.4859  0.4280 -0.2711
 4539TIP3    H135176   2.779   5.395   7.143 -0.5344  1.4533  0.1446
 4539TIP3    H235177   2.692   5.347   7.029  0.7324  0.2529 -0.3471
 4540TIP3   OH235178   5.463   4.576   0.049  0.2645  0.3403  0.2084
 4540TIP3    H135179   5.434   4.491   0.016  1.2028 -0.3159  1.0141
 4540TIP3    H235180   5.384   4.629   0.050 -0.5154 -0.7807  0.4605
 4541TIP3   OH235181   1.893   4.995   7.585  0.2849 -0.1436  0.9274
 4541TIP3    H135182   1.975   4.968   7.545  0.1694 -0.7953  1.1344
 4541TIP3    H235183   1.851   5.049   7.517  0.8113  0.0758  0.7704
 4542TIP3   OH235184   3.935   1.842   7.448  0.3461  0.4706  0.4106
 4542TIP3    H135185   3.969   1.822   7.360 -0.1279  1.5489 -0.0366
 4542TIP3    H235186   3.985   1.919   7.476 -1.4090  1.8810 -0.1212
 4543TIP3   OH235187   1.600   2.457   2.171  0.2622 -0.3120  0.3046
 4543TIP3    H135188   1.672   2.466   2.234  1.8754  1.1984 -1.6145
 4543TIP3    H235189   1.593   2.544   2.131 -1.1438 -1.0367 -1.1161
 4544TIP3   OH235190   2.712   0.552   2.147  0.2039  0.0747  0.6516
 4544TIP3    H135191   2.788   0.548   2.205  0.9054  1.7035 -0.1086
 4544TIP3    H235192   2.664   0.630   2.175  0.4395  0.7641 -0.7782
 4545TIP3   OH235193   5.713   1.231   0.418  0.4460 -0.7421 -0.4717
 4545TIP3    H135194   5.807   1.217   0.410  0.1765 -2.3362 -1.2641
 4545TIP3    H235195   5.693   1.213   0.510  0.8497 -0.8222 -0.4011
 4546TIP3   OH235196   2.601   2.232   0.604  0.4948 -0.5401 -0.2319
 4546TIP3    H135197   2.666   2.174   0.565  2.3790  1.3529 -0.1095
 4546TIP3    H235198   2.629   2.240   0.696  1.4781  1.9883 -0.6729
 4547TIP3   OH235199   6.534   1.795   1.887 -0.4928  0.2976  0.0384
 4547TIP3    H135200   6.469   1.859   1.859 -1.8752 -1.5571 -1.2309
 4547TIP3    H235201   6.600   1.847   1.934 -1.5863  2.6013 -0.7997
 4548TIP3   OH235202   0.601   5.515   8.048  0.1763 -0.1036  0.3457
 4548TIP3    H135203   0.622   5.598   8.005 -1.3074 -0.8357 -2.0031
 4548TIP3    H235204   0.517   5.490   8.011 -0.6678 -1.4514  2.9082
 4549TIP3   OH235205   2.538   2.909   2.344 -0.2882  0.4199 -0.2093
 4549TIP3    H135206   2.547   3.003   2.325  0.3562  0.2959 -0.5448
 4549TIP3    H235207   2.450   2.900   2.380 -0.3074  1.1768 -0.0561
 4550TIP3   OH235208   6.567   1.414   6.939 -0.7303 -0.2193  0.1357
 4550TIP3    H135209   6.551   1.320   6.950  1.1518 -0.6627 -0.5415
 4550TIP3    H235210   6.578   1.447   7.029  0.5735 -1.0636  0.3120
 4551TIP3   OH235211   3.114   1.817   1.253  0.2502  0.3223  0.2252
 4551TIP3    H135212   3.151   1.744   1.303 -0.0433  0.4709  0.6705
 4551TIP3    H235213   3.061   1.775   1.185 -0.0532  0.1101  0.5841
 4552TIP3   OH235214   3.663   2.827   0.779 -0.2490  0.2623 -0.0007
 4552TIP3    H135215   3.681   2.734   0.792 -2.8618 -0.2879  0.3723
 4552TIP3    H235216   3.696   2.846   0.691  2.2058 -0.4174  0.6944
 4553TIP3   OH235217   0.032   1.940   0.209 -0.1694 -0.1871  0.0964
 4553TIP3    H135218   0.104   1.953   0.271 -1.2271  1.4309  1.0476
 4553TIP3    H235219   0.038   1.847   0.185  3.4891  0.2900 -1.5127
 4554TIP3   OH235220   6.872   1.153   1.098 -0.0267 -0.2584  0.1860
 4554TIP3    H135221   6.900   1.228   1.046  0.3503  0.9698  2.0591
 4554TIP3    H235222   6.923   1.160   1.179  0.7509 -3.1167  0.0543
 4555TIP3   OH235223   4.742   4.307   0.561  0.3538 -0.1292 -0.2136
 4555TIP3    H135224   4.706   4.247   0.626 -0.5440  0.8618  0.2508
 4555TIP3    H235225   4.743   4.257   0.480 -0.1787 -0.8330  0.1995
 4556TIP3   OH235226   0.931   5.880   0.477 -0.0757 -0.0466  0.3318
 4556TIP3    H135227   1.014   5.839   0.451 -0.3920 -1.2118  1.0874
 4556TIP3    H235228   0.875   5.872   0.400 -0.0022 -0.6781  0.3404
 4557TIP3   OH235229   5.393   2.254   7.408  0.7611 -0.1083 -0.4839
 4557TIP3    H135230   5.391   2.188   7.477  2.1121  0.3075 -0.0182
 4557TIP3    H235231   5.301   2.278   7.396  0.4926 -0.0200  1.3475
 4558TIP3   OH235232   2.637   3.316   0.762 -0.7226 -0.0483  0.6998
 4558TIP3    H135233   2.623   3.278   0.849  1.6233 -2.2534  0.2284
 4558TIP3    H235234   2.584   3.262   0.704  0.5013 -0.9319  0.3655
 4559TIP3   OH235235   0.641   1.910   0.662 -0.1387 -0.3062 -0.0025
 4559TIP3    H135236   0.636   1.963   0.582 -0.2509 -1.9434 -1.1396
 4559TIP3    H235237   0.655   1.973   0.732 -1.6832  1.3635 -1.0970
 4560TIP3   OH235238   3.824   3.966   7.288 -0.1608  0.3482  0.5629
 4560TIP3    H135239   3.850   3.891   7.341  0.9243  0.3795  0.0956
 4560TIP3    H235240   3.729   3.955   7.276 -0.3976  0.2239  2.2898
 4561TIP3   OH235241   3.227   2.169   7.566  0.7030 -0.1248  0.3179
 4561TIP3    H135242   3.279   2.109   7.513  0.6914  0.5871 -0.5207
 4561TIP3    H235243   3.276   2.251   7.566  0.8846 -0.2013  1.7270
 4562TIP3   OH235244   1.969   6.661   6.889 -0.8740  0.3064 -0.3607
 4562TIP3    H135245   2.042   6.607   6.916  0.6318  1.7805 -1.2709
 4562TIP3    H235246   1.964   6.730   6.955 -2.6848 -0.7550  0.7124
 4563TIP3   OH235247   0.981   0.188   8.195  0.2867  0.4083 -0.9002
 4563TIP3    H135248   0.912   0.198   8.130 -1.1179  1.0652  0.6234
 4563TIP3    H235249   0.953   0.115   8.250  1.9234 -0.7634 -1.5552
 4564TIP3   OH235250   5.804   1.313   1.672 -0.0896  0.3222  0.5801
 4564TIP3    H135251   5.827   1.288   1.762 -0.2884  1.4621  0.9692
 4564TIP3    H235252   5.877   1.367   1.643 -0.2539  0.3514  0.2224
 4565TIP3   OH235253   0.397   1.721   7.887  0.2071 -0.4138 -0.0097
 4565TIP3    H135254   0.311   1.685   7.864  1.0615 -1.7981 -1.1825
 4565TIP3    H235255   0.438   1.653   7.940  1.9017 -1.3882 -2.3707
 4566TIP3   OH235256   6.335   6.512   8.002  0.6035  0.1607 -0.5021
 4566TIP3    H135257   6.426   6.519   8.032  0.8575 -1.6620 -0.6990
 4566TIP3    H235258   6.283   6.516   8.082  0.9198  0.3129 -0.3028
 4567TIP3   OH235259   4.325   1.656   0.577 -0.8236  0.0297  0.4858
 4567TIP3    H135260   4.362   1.718   0.640  0.3410 -0.4039  0.2389
 4567TIP3    H235261   4.260   1.607   0.627 -2.0476  1.6836  0.5968
 4568TIP3   OH235262   5.122   2.213   7.391  0.4070 -0.2529  0.1988
 4568TIP3    H135263   5.086   2.280   7.333  0.4963 -0.5521 -0.2019
 4568TIP3    H235264   5.046   2.167   7.426  0.3818 -0.8659 -0.6240
 4569TIP3   OH235265   3.797   4.026   1.122 -0.3348  0.5511 -0.5128
 4569TIP3    H135266   3.792   4.121   1.114  0.6505  1.0477  3.0554
 4569TIP3    H235267   3.706   3.998   1.127 -0.6949  1.8761  2.2565
 4570TIP3   OH235268   2.184   5.312   1.531  0.2469  0.1563  0.4993
 4570TIP3    H135269   2.130   5.346   1.460  0.8078 -0.9838 -0.5093
 4570TIP3    H235270   2.197   5.219   1.510  1.9080  0.2028  1.1263
 4571TIP3   OH235271   6.225   3.108   8.280 -0.4587 -0.0207 -0.5224
 4571TIP3    H135272   6.197   3.092   8.189 -1.0497 -1.1159 -0.1661
 4571TIP3    H235273   6.264   3.195   8.278 -0.7605  0.1043 -1.7662
 4572TIP3   OH235274   1.299   0.550   1.024  0.3158  0.0787 -0.6537
 4572TIP3    H135275   1.286   0.559   1.118  0.9684 -0.9247 -0.4444
 4572TIP3    H235276   1.308   0.640   0.992 -1.4383  0.5246 -0.0137
 4573TIP3   OH235277   2.360   3.323   1.281 -0.8458 -0.0838 -0.0175
 4573TIP3    H135278   2.456   3.320   1.286 -0.8890 -1.3168  0.2639
 4573TIP3    H235279   2.339   3.415   1.294  0.4059  0.5474 -1.9430
 4574TIP3   OH235280   2.270   1.229   7.325 -0.5420 -0.0708  0.3820
 4574TIP3    H135281   2.221   1.147   7.330 -1.5629  0.4417 -0.6868
 4574TIP3    H235282   2.248   1.265   7.239  0.7947  0.7698  0.3638
 4575TIP3   OH235283   3.612   2.080   7.709  0.3014  0.0446 -0.1881
 4575TIP3    H135284   3.568   2.004   7.747  0.1986  0.4772  0.5736
 4575TIP3    H235285   3.704   2.066   7.727  0.2609  0.2065  0.1612
 4576TIP3   OH235286   1.055   6.739   7.842 -0.2713 -0.2424 -0.1011
 4576TIP3    H135287   1.099   6.775   7.919 -0.7681  1.4886 -0.5898
 4576TIP3    H235288   1.109   6.767   7.768 -1.8701  1.5528 -0.6741
 4577TIP3   OH235289   5.221   4.758   2.527  0.5663  0.1930 -0.2044
 4577TIP3    H135290   5.243   4.666   2.542 -1.2574 -0.3797 -0.7984
 4577TIP3    H235291   5.156   4.779   2.593 -0.3199  0.5173 -1.1493
 4578TIP3   OH235292   5.065   3.653   8.096 -0.4832  0.3891 -0.4984
 4578TIP3    H135293   5.146   3.617   8.133  0.7305  1.7413 -1.7476
 4578TIP3    H235294   5.061   3.743   8.129 -2.9108 -0.3691  1.6935
 4579TIP3   OH235295   4.156   2.381   8.248 -0.2366 -0.1591  0.0732
 4579TIP3    H135296   4.188   2.386   8.158  0.7484 -0.3490  0.4052
 4579TIP3    H235297   4.229   2.347   8.298 -0.7368  0.0505  0.9752
 4580TIP3   OH235298   0.385   4.124   7.463 -0.2065  0.3897  0.4019
 4580TIP3    H135299   0.457   4.151   7.521  0.1802  0.4175 -0.0861
 4580TIP3    H235300   0.389   4.185   7.390 -0.8893  0.5460  0.4963
 4581TIP3   OH235301   3.093   1.686   0.201  0.5309 -0.2741 -0.0959
 4581TIP3    H135302   3.079   1.606   0.151  1.0297 -1.2522  1.2515
 4581TIP3    H235303   3.143   1.743   0.143 -0.3401 -0.6962 -1.2941
 4582TIP3   OH235304   0.367   1.709   2.322 -0.2884  0.0282 -0.3716
 4582TIP3    H135305   0.405   1.636   2.371  0.4645 -0.3817 -1.5232
 4582TIP3    H235306   0.280   1.677   2.296  0.3974 -0.8667 -1.6809
 4583TIP3   OH235307   4.320   1.588   2.650  0.0263 -0.0476  0.5429
 4583TIP3    H135308   4.234   1.548   2.660 -0.2153  0.5979  1.0976
 4583TIP3    H235309   4.348   1.608   2.739  0.4602  0.3488  0.3237
 4584TIP3   OH235310   3.617   1.278   6.980  0.0894 -0.0839  0.4593
 4584TIP3    H135311   3.667   1.202   6.950  0.2383 -0.1457  0.8548
 4584TIP3    H235312   3.534   1.273   6.932 -0.1075 -0.7884  0.8490
 4585TIP3   OH235313   4.807   5.122   1.190 -0.3435  0.2271  0.3579
 4585TIP3    H135314   4.825   5.055   1.255 -0.7996 -0.2324  0.0192
 4585TIP3    H235315   4.842   5.203   1.228 -1.3558  0.1301  1.5393
 4586TIP3   OH235316   0.567   2.249   2.860 -0.0767  0.1925 -0.0856
 4586TIP3    H135317   0.596   2.160   2.880  0.6136 -0.1387 -2.2706
 4586TIP3    H235318   0.645   2.303   2.873  0.6813 -0.1738 -2.5291
 4587TIP3   OH235319   1.269   2.643   7.852 -0.3553 -0.4838 -0.0277
 4587TIP3    H135320   1.263   2.560   7.805  2.0404 -1.0914  0.6004
 4587TIP3    H235321   1.340   2.690   7.809  0.0102  0.1346  1.2070
 4588TIP3   OH235322   4.579   2.452   2.667 -0.2840 -0.0432  0.0302
 4588TIP3    H135323   4.627   2.432   2.747 -1.1469  0.2207  0.6363
 4588TIP3    H235324   4.614   2.392   2.601  1.5932  0.8453  0.1590
 4589TIP3   OH235325   1.180   5.081   2.104  0.2924 -0.3592  0.4343
 4589TIP3    H135326   1.273   5.079   2.127  0.2860 -1.4278  0.4107
 4589TIP3    H235327   1.138   5.125   2.178  0.9386  1.1512 -0.0654
 4590TIP3   OH235328   6.356   0.909   7.148 -0.2769  0.0974  0.8377
 4590TIP3    H135329   6.349   0.824   7.192 -0.2314  0.2595  1.1596
 4590TIP3    H235330   6.265   0.937   7.135 -0.2977 -0.1404  0.4563
 4591TIP3   OH235331   2.516   6.799   1.510 -0.1288 -0.1260 -0.2545
 4591TIP3    H135332   2.437   6.762   1.472 -0.4613 -0.1436  0.4368
 4591TIP3    H235333   2.581   6.797   1.439 -0.6386 -0.4496 -0.7134
 4592TIP3   OH235334   0.964   1.460   0.708 -0.3084 -0.0335  0.0713
 4592TIP3    H135335   0.881   1.506   0.702 -1.3390 -1.7694  0.3763
 4592TIP3    H235336   0.946   1.386   0.766  0.8682 -1.6306 -1.4982
 4593TIP3   OH235337   2.515   6.137   7.969  0.2939 -0.6768 -0.1238
 4593TIP3    H135338   2.522   6.197   7.895  1.2566 -0.8771 -0.2169
 4593TIP3    H235339   2.469   6.060   7.933 -0.4817 -0.2116 -0.1376
 4594TIP3   OH235340   6.897   2.388   6.437  0.1687  0.2523  0.7531
 4594TIP3    H135341   6.946   2.356   6.361  1.1846  0.5871  1.2475
 4594TIP3    H235342   6.809   2.352   6.425  0.5346 -0.4062 -0.1359
 4595TIP3   OH235343   0.403   3.666   8.469  0.2862  0.1437 -0.4975
 4595TIP3    H135344   0.422   3.751   8.510  1.6319 -0.2257 -0.3200
 4595TIP3    H235345   0.446   3.670   8.384 -0.2791 -0.0946 -0.8032
 4596TIP3   OH235346   6.083   2.191   8.033 -0.0043  0.6474 -0.2385
 4596TIP3    H135347   6.002   2.242   8.044  0.0546  0.9207 -0.9709
 4596TIP3    H235348   6.094   2.146   8.116 -0.3620  1.4045  0.2385
 4597TIP3   OH235349   1.594   0.126   1.629  0.6088  0.0633 -0.3987
 4597TIP3    H135350   1.619   0.116   1.537  0.9915  1.3685 -0.4595
 4597TIP3    H235351   1.499   0.115   1.629  0.6043  0.0548 -0.9567
 4598TIP3   OH235352   6.035   4.238   8.086  0.0094 -0.5252 -0.1529
 4598TIP3    H135353   6.122   4.233   8.124 -0.1370 -1.4417  0.0881
 4598TIP3    H235354   6.039   4.312   8.025  0.7029 -0.0355  0.4743
 4599TIP3   OH235355   3.287   5.409   7.756  0.1791  0.2755  0.0309
 4599TIP3    H135356   3.367   5.365   7.725 -0.0404 -0.5005  0.5396
 4599TIP3    H235357   3.248   5.445   7.677  1.7637  1.9424 -0.0726
 4600TIP3   OH235358   0.195   3.695   7.817 -0.1092 -0.7680  0.2304
 4600TIP3    H135359   0.138   3.662   7.886 -1.3732 -2.5275 -1.5490
 4600TIP3    H235360   0.136   3.725   7.748  1.0991 -1.0895 -0.9940
 4601TIP3   OH235361   5.374   4.841   1.188  0.2979  0.1782 -0.1272
 4601TIP3    H135362   5.290   4.887   1.179  0.6617  1.0945  0.9765
 4601TIP3    H235363   5.419   4.858   1.105 -0.3168  0.2670 -0.4492
 4602TIP3   OH235364   5.290   4.329   2.232 -0.5373 -0.1844 -0.3525
 4602TIP3    H135365   5.221   4.380   2.274  0.9504  0.4437  1.4729
 4602TIP3    H235366   5.250   4.244   2.216 -1.2931 -0.4311  2.3001
 4603TIP3   OH235367   1.692   6.050   8.013  0.2139  0.1007 -0.4111
 4603TIP3    H135368   1.695   6.055   8.109 -2.0914 -0.8737 -0.2345
 4603TIP3    H235369   1.653   5.965   7.995 -0.2889  0.6854 -2.2170
 4604TIP3   OH235370   5.080   6.179   8.476 -0.5121  0.2825 -0.3030
 4604TIP3    H135371   5.081   6.111   8.544 -0.6189  0.0575 -0.5287
 4604TIP3    H235372   4.989   6.210   8.475 -0.7351 -0.3766 -1.0069
 4605TIP3   OH235373   4.259   3.501   2.956  0.2221  0.8241 -0.0079
 4605TIP3    H135374   4.305   3.510   2.873 -1.1043  2.2953 -0.6178
 4605TIP3    H235375   4.327   3.470   3.017  1.4343  0.6313 -1.3918
 4606TIP3   OH235376   5.958   0.658   7.763 -0.2721 -0.0149 -0.2027
 4606TIP3    H135377   5.871   0.631   7.735 -0.9218  1.1837  0.5571
 4606TIP3    H235378   6.018   0.609   7.707 -1.2679 -3.8114  1.7091
 4607TIP3   OH235379   4.165   5.424   1.689  0.3066 -0.0413  0.3237
 4607TIP3    H135380   4.181   5.364   1.616  1.7671  0.4928  0.1719
 4607TIP3    H235381   4.075   5.407   1.715  0.0130 -0.7889 -1.1006
 4608TIP3   OH235382   3.328   1.562   8.226 -0.1635  0.3195  0.0392
 4608TIP3    H135383   3.286   1.647   8.209  0.0253  0.2848 -0.6271
 4608TIP3    H235384   3.317   1.513   8.145  0.8521  0.1732 -0.0264
 4609TIP3   OH235385   1.167   5.206   1.795  0.4778  0.6833 -0.0765
 4609TIP3    H135386   1.233   5.219   1.863 -0.7282  0.4779  1.1839
 4609TIP3    H235387   1.146   5.294   1.764  1.4354  0.7394 -0.6179
 4610TIP3   OH235388   2.826   3.565   1.473  0.1771  0.0215 -0.0950
 4610TIP3    H135389   2.891   3.506   1.512  0.4503 -0.2529 -0.9494
 4610TIP3    H235390   2.845   3.563   1.379 -2.9093 -2.4950 -0.8720
 4611TIP3   OH235391   4.893   1.338   7.333  0.6751  0.4478 -0.2932
 4611TIP3    H135392   4.807   1.296   7.334  0.2379  1.3228 -0.1005
 4611TIP3    H235393   4.888   1.401   7.261  1.9089 -0.9837 -1.6956
 4612TIP3   OH235394   3.031   6.660   2.172  0.0584 -0.7229 -0.2416
 4612TIP3    H135395   3.104   6.610   2.207 -0.1832 -0.1718  1.1273
 4612TIP3    H235396   2.953   6.617   2.207 -0.2474 -0.8104 -1.0087
 4613TIP3   OH235397   6.172   2.989   8.033 -0.7997  0.0417 -0.0882
 4613TIP3    H135398   6.228   2.912   8.039  1.6832  1.6727 -0.7914
 4613TIP3    H235399   6.171   3.011   7.939 -1.7455  0.6739  0.0561
 4614TIP3   OH235400   4.891   6.006   0.993  0.4754  0.2588 -0.2558
 4614TIP3    H135401   4.844   6.041   0.917 -0.4424 -0.5920 -0.0996
 4614TIP3    H235402   4.982   6.032   0.979 -0.0265  1.9567 -0.5619
 4615TIP3   OH235403   1.710   4.046   7.621  0.4501 -0.3891 -0.0244
 4615TIP3    H135404   1.712   3.991   7.699 -0.5551  0.1747  0.4040
 4615TIP3    H235405   1.627   4.026   7.578  0.7265 -0.2580 -0.6463
 4616TIP3   OH235406   5.659   5.251   2.487 -0.2515  0.1467  0.1337
 4616TIP3    H135407   5.581   5.294   2.451  0.1102 -0.9945 -2.1970
 4616TIP3    H235408   5.669   5.172   2.434  2.7576  0.5037  0.0116
 4617TIP3   OH235409   5.079   2.199   8.121  0.2855  0.1266 -0.1993
 4617TIP3    H135410   5.119   2.125   8.166 -0.5833 -0.3970 -0.2606
 4617TIP3    H235411   5.133   2.211   8.043  1.9203  1.1702  1.0213
 4618TIP3   OH235412   1.394   1.876   0.189 -0.1955 -0.3826 -0.3423
 4618TIP3    H135413   1.421   1.965   0.208 -1.3076 -0.4017  1.5830
 4618TIP3    H235414   1.474   1.824   0.196  0.2251  0.2818 -0.1482
 4619TIP3   OH235415   2.345   1.562   1.956 -0.3269 -0.3695 -0.5041
 4619TIP3    H135416   2.264   1.539   2.002 -1.1521 -0.4356 -1.9571
 4619TIP3    H235417   2.332   1.532   1.867  1.4323 -0.6534 -0.7060
 4620TIP3   OH235418   4.020   1.106   7.612 -0.1349 -0.2918 -0.8208
 4620TIP3    H135419   4.085   1.048   7.650 -0.8704  0.7072  2.2146
 4620TIP3    H235420   3.952   1.048   7.578  0.5230 -1.2445 -0.5231
 4621TIP3   OH235421   3.474   3.514   2.416 -0.7515 -0.7280 -0.1166
 4621TIP3    H135422   3.480   3.451   2.488 -1.8501 -2.5205 -1.4946
 4621TIP3    H235423   3.557   3.506   2.370 -0.5301 -0.4919  0.2412
 4622TIP3   OH235424   2.484   2.561   0.494  0.3360 -0.0456 -0.2594
 4622TIP3    H135425   2.430   2.482   0.499 -1.8943  1.3407 -0.9207
 4622TIP3    H235426   2.524   2.569   0.581 -0.5590 -1.1263  0.2654
 4623TIP3   OH235427   6.834   1.337   8.167 -0.6429 -0.3378 -0.5817
 4623TIP3    H135428   6.771   1.291   8.222 -1.3149  0.2196 -0.8770
 4623TIP3    H235429   6.911   1.349   8.223 -1.2254  0.0092  0.1656
 4624TIP3   OH235430   5.480   3.000   7.637 -0.4705  0.4002  0.2317
 4624TIP3    H135431   5.406   2.945   7.615  0.8566 -0.9112 -1.1764
 4624TIP3    H235432   5.549   2.939   7.662  0.8412  1.4285 -0.7304
 4625TIP3   OH235433   4.606   4.257   0.041  0.7512  0.3119 -0.6465
 4625TIP3    H135434   4.687   4.305   0.023  0.6083  0.5031 -0.7874
 4625TIP3    H235435   4.537   4.320   0.023  0.6020  0.5379  0.6745
 4626TIP3   OH235436   4.664   5.540   8.537  0.1618  0.0878  0.2058
 4626TIP3    H135437   4.680   5.628   8.571 -0.3444 -0.9844  3.5509
 4626TIP3    H235438   4.664   5.551   8.441  0.4396  3.6118  0.4843
 4627TIP3   OH235439   0.059   0.555   0.194 -0.2402  0.1207 -0.3168
 4627TIP3    H135440   0.049   0.635   0.142 -1.4593 -0.1192 -0.4783
 4627TIP3    H235441   0.137   0.513   0.159 -1.0063 -0.0150 -1.9460
 4628TIP3   OH235442   4.056   5.187   8.520  0.4398  0.2408  0.7288
 4628TIP3    H135443   3.995   5.198   8.447 -0.7582  0.3432  1.7096
 4628TIP3    H235444   4.098   5.103   8.504 -0.5195 -0.2000  0.4053
 4629TIP3   OH235445   1.190   6.311   7.861  0.1097  0.1630  0.3528
 4629TIP3    H135446   1.107   6.263   7.858 -0.0974  0.1860  3.0964
 4629TIP3    H235447   1.165   6.399   7.889  0.8844  0.8417 -0.9855
 4630TIP3   OH235448   3.255   2.442   7.509  0.4358  0.0262  0.6433
 4630TIP3    H135449   3.293   2.479   7.429  1.1225  0.3194  1.0933
 4630TIP3    H235450   3.330   2.412   7.560 -0.0197 -0.5642  0.9898
 4631TIP3   OH235451   1.133   6.782   1.417 -0.0113  0.3074 -0.2251
 4631TIP3    H135452   1.068   6.742   1.360 -1.4123 -0.4463  1.7974
 4631TIP3    H235453   1.216   6.773   1.369 -1.2269  0.4503 -2.4487
 4632TIP3   OH235454   4.561   4.646   1.760 -0.1855 -0.5281  0.6608
 4632TIP3    H135455   4.555   4.699   1.840 -1.0760 -1.1699  1.0411
 4632TIP3    H235456   4.475   4.603   1.754 -0.1907 -0.3713 -0.7279
 4633TIP3   OH235457   3.152   4.860   2.777 -0.1067 -0.1555  0.5506
 4633TIP3    H135458   3.192   4.790   2.725 -0.2941 -0.1797  0.4393
 4633TIP3    H235459   3.171   4.940   2.729 -1.2231 -0.2866 -0.1388
 4634TIP3   OH235460   1.346   5.387   2.805 -0.7140 -0.0348  0.2253
 4634TIP3    H135461   1.300   5.303   2.810 -0.0471 -0.3454  1.7265
 4634TIP3    H235462   1.420   5.377   2.865 -0.0088  1.2564 -0.3980
 4635TIP3   OH235463   3.911   6.435   0.266  0.6973  0.6946  0.2885
 4635TIP3    H135464   3.827   6.477   0.281 -1.5590 -2.7591 -1.2858
 4635TIP3    H235465   3.943   6.412   0.353 -1.1663  0.0425  0.8403
 4636TIP3   OH235466   0.443   1.204   7.174  0.4343  0.1656 -0.1727
 4636TIP3    H135467   0.377   1.273   7.178  0.5644  0.2694  0.3116
 4636TIP3    H235468   0.449   1.171   7.264  2.5814  1.6219  0.2802
 4637TIP3   OH235469   5.229   0.022   7.249 -0.0604  0.6203 -0.0868
 4637TIP3    H135470   5.266   0.108   7.231 -1.7259  1.5043  0.5541
 4637TIP3    H235471   5.296  -0.022   7.302  1.4161  0.9460 -1.5832
 4638TIP3   OH235472   5.172   1.803   8.137 -0.2024 -0.3170  0.3113
 4638TIP3    H135473   5.149   1.866   8.205  2.4225 -0.2472  1.2554
 4638TIP3    H235474   5.218   1.733   8.184  1.1687 -0.5523 -1.3024
 4639TIP3   OH235475   4.298   3.637   6.876 -0.1047 -0.0767 -0.5440
 4639TIP3    H135476   4.346   3.581   6.815  0.3061 -0.1489 -0.1672
 4639TIP3    H235477   4.321   3.726   6.850 -2.0448  0.0054 -2.1796
 4640TIP3   OH235478   0.620   0.480   8.358  0.1598  0.2970  0.0615
 4640TIP3    H135479   0.675   0.510   8.285  1.9435 -0.1696  1.1464
 4640TIP3    H235480   0.666   0.403   8.392 -0.0287  1.1256  2.3449
 4641TIP3   OH235481   0.803   6.462   2.652 -0.6585 -0.0551  0.2226
 4641TIP3    H135482   0.859   6.403   2.702  0.4895  0.5246 -0.3430
 4641TIP3    H235483   0.714   6.434   2.673 -0.1741 -0.7717  1.4139
 4642TIP3   OH235484   2.986   4.328   6.940  0.1719 -0.2681  0.1625
 4642TIP3    H135485   3.061   4.308   6.996  0.6325 -1.2098 -0.7536
 4642TIP3    H235486   3.015   4.400   6.885 -0.7968  1.7322  2.0795
 4643TIP3   OH235487   1.938   1.639   8.419 -0.4137  0.2280  0.4251
 4643TIP3    H135488   2.018   1.602   8.456  0.2641  0.9622 -0.2795
 4643TIP3    H235489   1.931   1.600   8.332 -2.4376 -2.1189  1.5213
 4644TIP3   OH235490   6.065   2.103   6.925 -0.5765 -0.3723 -0.6441
 4644TIP3    H135491   6.102   2.184   6.961  0.3530 -0.6900 -0.8707
 4644TIP3    H235492   6.118   2.033   6.963 -1.9080 -0.9565  0.2332
 4645TIP3   OH235493   1.805   2.189   1.232 -0.0583  0.6681 -0.2858
 4645TIP3    H135494   1.714   2.162   1.225  0.1841 -0.3297  0.1677
 4645TIP3    H235495   1.836   2.194   1.141 -0.1307 -0.5714 -0.3928
 4646TIP3   OH235496   2.341   2.206   1.073  0.1823  0.1859  0.3288
 4646TIP3    H135497   2.415   2.149   1.053 -0.3578 -0.7025  0.7583
 4646TIP3    H235498   2.286   2.203   0.995 -1.0483 -1.8725  1.1719
 4647TIP3   OH235499   5.121   2.633   7.397 -0.6277 -0.2648  0.4729
 4647TIP3    H135500   5.066   2.658   7.322  0.3832 -2.4540 -1.0856
 4647TIP3    H235501   5.060   2.596   7.460 -1.0856 -2.4552 -1.1419
 4648TIP3   OH235502   2.760   6.016   8.409  0.7363  0.1077 -0.0216
 4648TIP3    H135503   2.753   6.025   8.314 -0.4118 -1.8435 -0.1894
 4648TIP3    H235504   2.750   6.105   8.443 -1.1175  0.5821 -1.6327
 4649TIP3   OH235505   3.368   6.915   8.475 -0.0625  0.4126  0.0453
 4649TIP3    H135506   3.411   7.001   8.480  2.3867 -0.7690  1.0298
 4649TIP3    H235507   3.396   6.880   8.390 -0.9730  0.5057 -0.3060
 4650TIP3   OH235508   4.526   4.016   6.957 -0.5132 -0.6240 -0.4555
 4650TIP3    H135509   4.486   3.969   6.883  0.9375 -1.4684 -0.7257
 4650TIP3    H235510   4.508   3.960   7.032  1.2714 -1.7064 -0.7874
 4651TIP3   OH235511   1.678   1.686   8.553 -0.7956 -0.5108  0.3588
 4651TIP3    H135512   1.773   1.691   8.561 -0.7824  2.3210 -0.2067
 4651TIP3    H235513   1.646   1.700   8.642 -0.6368  0.5348  0.2713
 4652TIP3   OH235514   1.047   4.118   0.153  0.7330  0.7984 -0.0808
 4652TIP3    H135515   1.055   4.183   0.083  0.5419  0.9089 -0.0002
 4652TIP3    H235516   1.121   4.059   0.139 -1.4392 -1.5102 -2.7716
 4653TIP3   OH235517   1.082   2.460   2.147  0.0378 -0.4026  0.1013
 4653TIP3    H135518   1.022   2.417   2.086  0.0523 -1.6360  0.9151
 4653TIP3    H235519   1.137   2.515   2.092 -0.5519 -0.7702 -0.8866
 4654TIP3   OH235520   6.316   0.249   0.317 -0.4034  0.3254  0.2660
 4654TIP3    H135521   6.368   0.321   0.283  1.2384 -1.1772 -0.5767
 4654TIP3    H235522   6.246   0.291   0.367  1.2365  2.4398  0.8999
 4655TIP3   OH235523   0.214   6.040   0.088  0.0601 -0.4521  0.2910
 4655TIP3    H135524   0.256   6.093   0.156  2.4152 -2.0966  0.2204
 4655TIP3    H235525   0.141   5.996   0.132  1.2350 -1.0896  1.6418
 4656TIP3   OH235526   2.161   1.183   0.459  0.5248  0.4467  0.2505
 4656TIP3    H135527   2.251   1.157   0.445  1.0541  2.6446 -0.9028
 4656TIP3    H235528   2.109   1.124   0.404  1.6871  1.9309 -2.6193
 4657TIP3   OH235529   4.985   1.728   0.342  0.2746 -0.0429  0.1795
 4657TIP3    H135530   5.030   1.674   0.277 -0.1554  0.2018 -0.3285
 4657TIP3    H235531   4.962   1.666   0.412  0.1387 -0.4457 -0.2126
 4658TIP3   OH235532   6.642   4.141   1.458 -0.1933 -0.2027  0.5766
 4658TIP3    H135533   6.702   4.174   1.525 -1.8073  2.7236  0.7489
 4658TIP3    H235534   6.661   4.047   1.453  2.2638  0.0655  2.7289
 4659TIP3   OH235535   0.640   4.290   1.211 -0.1626  0.4645 -0.6267
 4659TIP3    H135536   0.710   4.352   1.192  0.0271  0.7626  0.9077
 4659TIP3    H235537   0.592   4.329   1.284 -0.7517 -0.6318 -0.3974
 4660TIP3   OH235538   6.275   6.659   7.280  0.3226  0.0468 -0.1850
 4660TIP3    H135539   6.274   6.564   7.293  0.8466  0.1369  0.6487
 4660TIP3    H235540   6.190   6.680   7.242  0.4998 -0.8484 -1.1018
 4661TIP3   OH235541   5.973   2.983   1.039 -0.5605 -0.2255  0.2318
 4661TIP3    H135542   5.884   3.004   1.067 -0.6729  0.5333 -0.6355
 4661TIP3    H235543   5.963   2.948   0.951  0.0738  0.9965 -0.3640
 4662TIP3   OH235544   4.852   5.712   0.717 -0.6172 -0.2603  0.7782
 4662TIP3    H135545   4.802   5.766   0.656 -0.7578  0.1965  1.2959
 4662TIP3    H235546   4.926   5.767   0.742  0.3705 -1.0720 -0.2805
 4663TIP3   OH235547   5.810   2.641   0.907  0.4904 -0.1571 -0.3328
 4663TIP3    H135548   5.881   2.581   0.928  0.6935 -0.2105 -1.1321
 4663TIP3    H235549   5.853   2.714   0.861  0.1872  0.3774  0.2263
 4664TIP3   OH235550   5.023   4.204   0.474 -0.0812 -0.2318 -0.3020
 4664TIP3    H135551   5.073   4.275   0.515 -4.2213  2.2738  0.9717
 4664TIP3    H235552   5.028   4.132   0.537  1.0465  0.2570  0.2035
 4665TIP3   OH235553   4.598   0.675   8.534  0.3512  0.2513 -0.2893
 4665TIP3    H135554   4.536   0.740   8.565 -0.4502 -1.4111  1.8425
 4665TIP3    H235555   4.660   0.725   8.479 -1.4784  2.3428 -0.5815
 4666TIP3   OH235556   0.931   5.867   6.905  0.0913  0.3851  0.0452
 4666TIP3    H135557   0.965   5.957   6.903 -0.7829  0.7316  0.3344
 4666TIP3    H235558   0.857   5.871   6.966 -0.0141 -0.5136 -0.0140
 4667TIP3   OH235559   0.752   4.241   8.209  0.6232  0.3027 -0.7641
 4667TIP3    H135560   0.738   4.206   8.297  2.0737 -0.6011 -0.8422
 4667TIP3    H235561   0.770   4.163   8.156  0.1602  0.8725 -1.7785
 4668TIP3   OH235562   4.274   1.322   8.506  0.0166  0.1758  0.1008
 4668TIP3    H135563   4.275   1.417   8.519  2.5715  0.1441  0.7284
 4668TIP3    H235564   4.277   1.312   8.410  1.9372  0.8356  0.0362
 4669TIP3   OH235565   5.057   6.241   2.283  0.1359  0.2415  0.4254
 4669TIP3    H135566   5.010   6.286   2.214 -0.9199 -2.0877 -0.4796
 4669TIP3    H235567   5.138   6.211   2.242 -0.4180 -1.0056  0.2162
 4670TIP3   OH235568   4.601   5.833   0.253 -0.5317 -0.5619  0.3770
 4670TIP3    H135569   4.560   5.905   0.205  0.8922 -0.0917 -0.1915
 4670TIP3    H235570   4.659   5.791   0.189  3.4008  1.6250  2.1522
 4671TIP3   OH235571   4.364   0.059   3.064  0.0894  0.0045  0.4817
 4671TIP3    H135572   4.395  -0.004   2.999 -1.2738 -0.1133 -0.0884
 4671TIP3    H235573   4.401   0.029   3.147  1.7739  0.1042 -0.2043
 4672TIP3   OH235574   3.206   4.520   8.135 -0.1505  0.5442 -0.5439
 4672TIP3    H135575   3.270   4.568   8.082  1.3766 -1.4304 -0.6301
 4672TIP3    H235576   3.237   4.529   8.225  0.9226 -1.2444 -0.6812
 4673TIP3   OH235577   5.185   6.107   1.032 -0.2855  0.6949  0.0494
 4673TIP3    H135578   5.247   6.044   1.071 -0.6972  0.2742  0.0364
 4673TIP3    H235579   5.235   6.188   1.025 -0.4767  1.1109  2.4416
 4674TIP3   OH235580   4.705   2.811   2.583  0.1260  0.1951  0.5422
 4674TIP3    H135581   4.789   2.845   2.615  0.4055  0.9261 -0.8902
 4674TIP3    H235582   4.643   2.884   2.596  0.1503  0.3491 -0.1565
 4675TIP3   OH235583   5.266   2.707   1.878 -0.4030  0.1590 -0.3531
 4675TIP3    H135584   5.224   2.631   1.839  0.2310  1.1667 -3.2800
 4675TIP3    H235585   5.224   2.782   1.837 -0.6339  1.4394  2.0372
 4676TIP3   OH235586   0.061   0.362   8.527  0.0311  0.1996 -0.1809
 4676TIP3    H135587   0.070   0.286   8.471 -0.5970 -0.9792  1.2442
 4676TIP3    H235588   0.137   0.360   8.585  0.4273  1.1237 -0.6438
 4677TIP3   OH235589   1.429   0.440   0.210 -0.2131 -0.3611 -0.3586
 4677TIP3    H135590   1.406   0.520   0.164 -1.6280 -0.2303  0.5011
 4677TIP3    H235591   1.425   0.371   0.144 -2.1916 -0.1785 -0.5006
 4678TIP3   OH235592   5.115   6.106   7.349  0.1760 -0.1178  0.1361
 4678TIP3    H135593   5.090   6.014   7.339  0.9003 -0.4117  0.8526
 4678TIP3    H235594   5.196   6.114   7.300 -0.3926  0.4016 -0.7468
 4679TIP3   OH235595   4.952   0.043   0.032 -0.0472  0.3507  0.7664
 4679TIP3    H135596   4.994   0.056  -0.053  0.1094 -1.9774  0.3991
 4679TIP3    H235597   5.010  -0.019   0.078 -1.0479  0.1759  1.8507
 4680TIP3   OH235598   3.262   3.690   1.471  0.5336  0.0506  0.4383
 4680TIP3    H135599   3.315   3.611   1.465  0.4795  0.1159 -1.2487
 4680TIP3    H235600   3.238   3.711   1.381  0.2242  1.7744  0.8725
 4681TIP3   OH235601   3.115   6.833   6.583  0.4853  0.8779 -0.6424
 4681TIP3    H135602   3.077   6.852   6.669  0.7949 -1.2286  0.0315
 4681TIP3    H235603   3.187   6.895   6.574  0.8458  0.7414  0.9346
 4682TIP3   OH235604   2.572   5.525   7.787  0.7160 -0.0668 -0.5382
 4682TIP3    H135605   2.589   5.613   7.754  0.1659  0.0137 -0.6275
 4682TIP3    H235606   2.477   5.523   7.803  0.5636 -0.9553 -1.4432
 4683TIP3   OH235607   6.451   1.033   7.842 -0.2517  0.2612 -0.0071
 4683TIP3    H135608   6.426   0.963   7.782  1.8575  0.7384 -1.5608
 4683TIP3    H235609   6.439   1.113   7.792 -0.5144  0.8600  0.9847
 4684TIP3   OH235610   3.514   5.095   0.233  0.2323 -0.6990 -0.2616
 4684TIP3    H135611   3.601   5.129   0.209  0.1057  1.1356  1.5914
 4684TIP3    H235612   3.458   5.118   0.159  1.0407 -0.6234 -0.8630
 4685TIP3   OH235613   5.576   4.254   0.958  0.6523 -0.1603 -0.4204
 4685TIP3    H135614   5.529   4.332   0.988  2.1609  0.5332  0.2400
 4685TIP3    H235615   5.659   4.287   0.925  1.2585 -1.4742 -0.2913
 4686TIP3   OH235616   3.387   6.197   7.969  0.2390  0.2258  0.3247
 4686TIP3    H135617   3.363   6.160   8.054  2.5903 -0.3875  0.7872
 4686TIP3    H235618   3.391   6.122   7.910  2.6367 -0.0186  0.6976
 4687TIP3   OH235619   2.954   0.793   2.493 -0.2797  0.1598  0.5481
 4687TIP3    H135620   2.996   0.708   2.506 -0.9251 -0.7308 -2.4103
 4687TIP3    H235621   2.863   0.773   2.473 -0.3912  1.4913 -0.4662
 4688TIP3   OH235622   0.795   0.345   7.544 -0.5619 -0.0111 -0.1406
 4688TIP3    H135623   0.880   0.350   7.587 -0.8780  0.2677  0.4687
 4688TIP3    H235624   0.759   0.433   7.552 -2.2471 -0.8035  2.4446
 4689TIP3   OH235625   0.309   4.337   7.742 -0.0294  0.3481  0.5244
 4689TIP3    H135626   0.247   4.302   7.806 -0.1338 -1.4396 -0.4873
 4689TIP3    H235627   0.261   4.407   7.698 -0.1477  1.2234  1.9695
 4690TIP3   OH235628   3.587   4.430   7.497 -0.0563  0.3859 -0.5080
 4690TIP3    H135629   3.601   4.500   7.433  1.8143  1.1781  0.6816
 4690TIP3    H235630   3.590   4.349   7.446  1.7683  0.9823 -1.4195
 4691TIP3   OH235631   4.538   2.951   8.171 -0.2936  0.7610 -0.4366
 4691TIP3    H135632   4.593   2.902   8.232  1.5852  0.3704 -2.3523
 4691TIP3    H235633   4.486   2.884   8.126  0.4715  0.7404 -1.3100
 4692TIP3   OH235634   6.866   0.619   7.629 -0.1774 -0.3022  0.2719
 4692TIP3    H135635   6.938   0.562   7.601  0.7001  0.6271  0.5757
 4692TIP3    H235636   6.822   0.569   7.698  0.9032 -0.4158  0.8951
 4693TIP3   OH235637   3.298   1.719   7.907  0.0391 -0.3119  0.2140
 4693TIP3    H135638   3.285   1.628   7.933  0.4126  0.2522  2.6306
 4693TIP3    H235639   3.294   1.769   7.989 -2.0645  2.1235 -1.2101
 4694TIP3   OH235640   6.546   1.142   2.083  0.3456 -0.0756 -0.0454
 4694TIP3    H135641   6.586   1.211   2.030 -1.0768 -0.3865 -1.6214
 4694TIP3    H235642   6.559   1.063   2.032 -1.0372 -0.3957  0.0667
 4695TIP3   OH235643   1.031   6.604   2.854  0.3655  0.3010  0.4325
 4695TIP3    H135644   1.037   6.654   2.935 -0.5708  0.6866  0.2814
 4695TIP3    H235645   1.119   6.607   2.817  1.9072 -3.1439  3.2903
 4696TIP3   OH235646   2.670   3.035   7.447 -0.0590 -1.1239  0.0997
 4696TIP3    H135647   2.733   3.021   7.375  2.0710  0.2965  1.5604
 4696TIP3    H235648   2.697   2.973   7.515 -0.9720 -1.2606  0.3537
 4697TIP3   OH235649   6.372   5.539   1.900 -0.3164  0.3787 -0.4810
 4697TIP3    H135650   6.321   5.569   1.825  0.2991  0.7946 -0.7458
 4697TIP3    H235651   6.387   5.617   1.952  1.2850  0.5799 -1.1691
 4698TIP3   OH235652   1.878   5.955   1.250 -0.0892  0.4288  0.0297
 4698TIP3    H135653   1.796   5.908   1.231 -0.0494 -0.2456  1.4707
 4698TIP3    H235654   1.931   5.893   1.300  0.7350  1.3621  0.3380
 4699TIP3   OH235655   5.361   0.307   1.929  0.5052  0.2394 -0.2786
 4699TIP3    H135656   5.358   0.367   2.003 -2.8405 -0.9430  0.7096
 4699TIP3    H235657   5.323   0.357   1.857 -0.6574 -0.1111  0.0826
 4700TIP3   OH235658   5.042   4.411   1.133  0.3205 -0.1379 -0.9935
 4700TIP3    H135659   5.109   4.473   1.162  0.9905 -0.0351 -2.6281
 4700TIP3    H235660   4.968   4.467   1.106  1.4273  0.1734 -3.7819
 4701TIP3   OH235661   1.181   4.431   8.173  0.1200 -0.5879  0.1713
 4701TIP3    H135662   1.240   4.443   8.248  0.7194  0.3867 -0.4314
 4701TIP3    H235663   1.181   4.517   8.129 -1.8011 -0.5543  0.1910
 4702TIP3   OH235664   0.586   6.479   0.201  0.4444 -0.0940  0.1662
 4702TIP3    H135665   0.493   6.499   0.190  0.6459  2.0431  1.7272
 4702TIP3    H235666   0.630   6.534   0.137  0.6780 -1.2964 -0.7517
 4703TIP3   OH235667   4.345   2.490   8.583  0.2659 -0.5224 -0.2325
 4703TIP3    H135668   4.377   2.513   8.495 -0.5189  1.5073 -0.0475
 4703TIP3    H235669   4.254   2.462   8.569 -0.1467  0.6342 -0.0220
 4704TIP3   OH235670   2.591   1.368   0.245  0.3108  0.4158 -0.2913
 4704TIP3    H135671   2.580   1.300   0.311  0.2003  0.6073 -0.1110
 4704TIP3    H235672   2.662   1.422   0.277  1.7870 -0.7639 -1.4168
 4705TIP3   OH235673   5.002   6.798   1.958  0.1282  0.2396 -0.6416
 4705TIP3    H135674   5.085   6.826   1.997  0.2308  1.1691 -1.4907
 4705TIP3    H235675   5.028   6.746   1.882 -0.0388  1.4256 -1.5347
 4706TIP3   OH235676   5.399   2.072   7.597 -0.1347 -0.7557  0.4029
 4706TIP3    H135677   5.412   1.979   7.617  0.0210 -0.5977  1.0469
 4706TIP3    H235678   5.322   2.097   7.648  0.1259 -0.4058  0.6275
 4707TIP3   OH235679   4.308   6.395   1.279  0.2075  0.1872  0.4801
 4707TIP3    H135680   4.304   6.323   1.216  1.4746 -0.8645  1.5344
 4707TIP3    H235681   4.221   6.397   1.319 -0.3463  0.3193 -0.6804
 4708TIP3   OH235682   6.164   6.347   0.751  0.2766  0.0441  0.0679
 4708TIP3    H135683   6.166   6.360   0.657 -0.4547  0.1310  0.0530
 4708TIP3    H235684   6.251   6.373   0.782  0.8041 -0.8064 -0.6731
 4709TIP3   OH235685   1.833   6.884   1.539 -0.5210 -0.1094  0.2881
 4709TIP3    H135686   1.867   6.883   1.628  0.2583 -0.8822  0.0002
 4709TIP3    H235687   1.888   6.946   1.492  1.0592 -1.8874 -0.3546
 4710TIP3   OH235688   4.222   3.829   0.476 -0.0819 -0.0968  0.8535
 4710TIP3    H135689   4.132   3.859   0.495 -1.0464 -0.9225 -1.9608
 4710TIP3    H235690   4.273   3.910   0.470 -1.4502  0.7153 -1.0337
 4711TIP3   OH235691   0.628   3.749   1.874  0.2239  0.2420 -0.3616
 4711TIP3    H135692   0.700   3.795   1.832 -0.8778  2.4636  0.0463
 4711TIP3    H235693   0.616   3.793   1.958 -0.0468 -1.6842  0.6633
 4712TIP3   OH235694   0.156   4.136   1.228  0.2044 -0.0119  0.0868
 4712TIP3    H135695   0.119   4.049   1.240  0.5649 -0.2417 -0.4317
 4712TIP3    H235696   0.181   4.163   1.317  2.1660 -1.3836  0.0286
 4713TIP3   OH235697   3.487   3.117   8.323  0.1961  0.0215 -0.8269
 4713TIP3    H135698   3.416   3.109   8.386  0.4456 -1.1451 -0.6848
 4713TIP3    H235699   3.489   3.211   8.302 -0.7880  0.2096 -0.1604
 4714TIP3   OH235700   5.689   1.691   0.181  0.8871 -1.0255  0.4058
 4714TIP3    H135701   5.601   1.709   0.215  1.1015 -0.6321  0.7723
 4714TIP3    H235702   5.736   1.774   0.194  1.7638 -1.6850  1.6594
 4715TIP3   OH235703   5.073   5.521   0.583 -0.5800  0.1804  0.0856
 4715TIP3    H135704   5.000   5.471   0.546  0.2032 -0.5010 -0.5889
 4715TIP3    H235705   5.077   5.601   0.532  0.8480 -0.9919 -1.8033
 4716TIP3   OH235706   4.218   2.086   8.163  0.1418  0.6181 -0.0811
 4716TIP3    H135707   4.168   2.027   8.106  2.0140 -0.7643 -0.3987
 4716TIP3    H235708   4.233   2.035   8.242  0.2458  1.3641  0.3817
 4717TIP3   OH235709   5.053   3.261   8.060  0.0517 -0.1098  0.4435
 4717TIP3    H135710   5.148   3.253   8.057 -0.0538 -1.6795  0.5814
 4717TIP3    H235711   5.032   3.269   8.153 -0.0358 -1.1981  0.5259
 4718TIP3   OH235712   2.881   3.632   8.082 -0.4333  0.4693 -0.1173
 4718TIP3    H135713   2.959   3.627   8.136 -1.2562  0.0916  1.0807
 4718TIP3    H235714   2.913   3.621   7.992  0.6061 -2.5474  0.5123
 4719TIP3   OH235715   5.249   6.176   3.306 -0.2638 -0.3372 -0.0312
 4719TIP3    H135716   5.331   6.179   3.355  0.4268  0.0124 -1.1695
 4719TIP3    H235717   5.205   6.259   3.327 -0.0401 -0.2543  0.1079
 4720TIP3   OH235718   0.875   6.026   8.426 -0.3372 -0.4149  0.2824
 4720TIP3    H135719   0.919   6.095   8.475  0.9769 -0.8387 -0.2473
 4720TIP3    H235720   0.812   5.988   8.488  1.8812 -1.5305  1.9785
 4721TIP3   OH235721   2.457   2.419   2.511 -0.5758  0.5140 -0.4271
 4721TIP3    H135722   2.445   2.506   2.548 -1.0147 -0.4291  1.8264
 4721TIP3    H235723   2.524   2.430   2.443  1.0526  2.2069  1.3469
 4722TIP3   OH235724   5.612   0.775   0.110 -0.3031 -0.2390 -0.0570
 4722TIP3    H135725   5.653   0.851   0.150  0.8868 -1.7355  1.7703
 4722TIP3    H235726   5.608   0.795   0.017  2.0271  1.1450  0.0664
 4723TIP3   OH235727   0.629   1.434   0.034  0.1524 -0.0437  0.9700
 4723TIP3    H135728   0.606   1.355   0.082  1.2487 -0.2831  1.1379
 4723TIP3    H235729   0.546   1.480   0.022 -0.1533  0.0796  3.1599
 4724TIP3   OH235730   4.313   5.566   7.807  0.3011 -0.0226 -0.3843
 4724TIP3    H135731   4.389   5.622   7.825  1.2769 -1.5477  0.5255
 4724TIP3    H235732   4.262   5.614   7.742  0.3377  2.5427  1.3428
 4725TIP3   OH235733   0.605   4.015   7.780  0.3296 -0.0301  0.0336
 4725TIP3    H135734   0.555   4.087   7.821  1.7522 -1.0249  3.9399
 4725TIP3    H235735   0.542   3.943   7.775  0.0048  0.2504 -0.0335
 4726TIP3   OH235736   1.668   1.224   0.161 -0.3607  0.2549 -0.1053
 4726TIP3    H135737   1.632   1.233   0.073 -0.2586 -0.1569 -0.1889
 4726TIP3    H235738   1.757   1.194   0.148 -0.4783 -0.2169  0.1536
 4727TIP3   OH235739   2.835   6.473   0.835  0.2777  0.1069  0.0926
 4727TIP3    H135740   2.907   6.421   0.870  1.2467  0.3247 -1.5160
 4727TIP3    H235741   2.806   6.424   0.758 -1.2814  0.0504  0.6786
 4728TIP3   OH235742   1.247   1.317   0.955 -0.2558  0.1011 -0.1462
 4728TIP3    H135743   1.246   1.350   0.865 -1.3463  0.0432 -0.1652
 4728TIP3    H235744   1.195   1.381   1.004 -0.8621 -0.6231  0.1633
 4729TIP3   OH235745   1.434   3.721   6.982  0.0223 -0.1730  0.4144
 4729TIP3    H135746   1.350   3.765   6.972 -0.8923 -1.7468  0.9870
 4729TIP3    H235747   1.477   3.767   7.054  0.2130  1.3992 -0.6295
 4730TIP3   OH235748   1.306   2.579   0.579  0.2998  0.1408 -0.2978
 4730TIP3    H135749   1.296   2.538   0.493 -0.5120 -0.1540 -0.0725
 4730TIP3    H235750   1.238   2.539   0.632 -0.4140  1.6681 -0.0303
 4731TIP3   OH235751   6.600   2.232   0.485  0.2916 -0.5287 -0.5167
 4731TIP3    H135752   6.650   2.189   0.415  1.8769  0.3276  0.0490
 4731TIP3    H235753   6.509   2.228   0.455  0.7754 -1.4168 -1.9638
 4732TIP3   OH235754   1.697   4.214   1.794  0.2554  0.2030  0.2147
 4732TIP3    H135755   1.627   4.255   1.742  0.2709 -2.0102 -1.7265
 4732TIP3    H235756   1.663   4.127   1.815  2.1220 -0.6582 -0.1356
 4733TIP3   OH235757   6.566   2.624   8.341  0.3702 -0.0296 -0.2861
 4733TIP3    H135758   6.636   2.649   8.402  2.0011  0.7139 -2.3359
 4733TIP3    H235759   6.520   2.707   8.324  1.0768  0.1506 -1.4089
 4734TIP3   OH235760   3.149   0.375   1.864  0.6472  0.3042  0.3661
 4734TIP3    H135761   3.124   0.284   1.877 -1.0714 -0.1295 -4.0754
 4734TIP3    H235762   3.243   0.373   1.846  0.4264 -0.8451 -0.7977
 4735TIP3   OH235763   1.047   4.782   0.038  0.3630  0.7012  0.0943
 4735TIP3    H135764   1.044   4.738  -0.047  0.7089 -0.4529  0.6581
 4735TIP3    H235765   1.101   4.859   0.023  0.4193  0.5122 -0.7362
 4736TIP3   OH235766   2.341   4.738   2.260 -0.3161  0.4908  0.0224
 4736TIP3    H135767   2.364   4.649   2.233 -0.9804  0.5577 -0.8161
 4736TIP3    H235768   2.281   4.769   2.192 -2.7492  0.3807  1.9744
 4737TIP3   OH235769   3.221   2.871   1.519 -0.7742 -0.5198 -0.2038
 4737TIP3    H135770   3.173   2.866   1.436 -0.2028 -0.0232 -0.5705
 4737TIP3    H235771   3.249   2.781   1.536 -0.4318 -0.5336 -0.8258
 4738TIP3   OH235772   1.983   5.999   2.526 -0.6604  0.0710  0.1163
 4738TIP3    H135773   2.077   5.994   2.542 -0.6016  0.0647 -0.2361
 4738TIP3    H235774   1.967   6.091   2.504 -0.4907 -0.2391 -1.3662
 4739TIP3   OH235775   3.462   5.511   8.521 -0.0760 -0.3483 -0.3238
 4739TIP3    H135776   3.426   5.552   8.442  0.1386 -0.4546 -0.4765
 4739TIP3    H235777   3.480   5.584   8.580  1.6535 -0.0834 -1.1415
 4740TIP3   OH235778   2.722   1.098   0.177 -0.0607 -1.1745 -0.0013
 4740TIP3    H135779   2.640   1.052   0.163  0.5700 -1.7491 -2.1549
 4740TIP3    H235780   2.697   1.190   0.186 -1.0057 -1.4471  0.2045
 4741TIP3   OH235781   4.462   1.463   0.170  0.0177  0.0102  0.2929
 4741TIP3    H135782   4.447   1.505   0.085 -2.9354  1.1024  1.2144
 4741TIP3    H235783   4.557   1.458   0.178  0.4443 -0.3977 -3.1494
 4742TIP3   OH235784   5.797   1.458   0.885  0.3121 -0.5184 -0.4365
 4742TIP3    H135785   5.785   1.546   0.848  1.2772 -0.4113 -0.5364
 4742TIP3    H235786   5.877   1.426   0.842  0.2825 -1.2151  0.0256
 4743TIP3   OH235787   2.560   3.612   0.865  0.2363 -0.3983 -0.1594
 4743TIP3    H135788   2.609   3.535   0.895  1.1600  0.3073  0.1825
 4743TIP3    H235789   2.620   3.685   0.878 -0.8341  0.4651  0.0554
 4744TIP3   OH235790   1.046   5.798   7.220  0.2801 -0.1751 -0.4630
 4744TIP3    H135791   1.049   5.706   7.245  0.1315  0.2500  1.2205
 4744TIP3    H235792   0.957   5.811   7.186 -1.0975  0.1756  2.9391
 4745TIP3   OH235793   3.276   5.581   6.960 -0.0573 -0.5497 -0.0848
 4745TIP3    H135794   3.309   5.648   6.900 -1.0946  1.8019  1.7704
 4745TIP3    H235795   3.306   5.498   6.923  1.7638  0.9479 -2.2486
 4746TIP3   OH235796   2.552   5.990   7.691 -0.4274  0.4345 -0.5938
 4746TIP3    H135797   2.467   6.024   7.717 -1.5246 -1.5833 -1.2839
 4746TIP3    H235798   2.579   6.046   7.618  0.2768  2.9106  1.4460
 4747TIP3   OH235799   6.057   0.848   7.430 -0.5019  0.3984  0.8024
 4747TIP3    H135800   6.007   0.917   7.474 -0.6715 -0.2207  1.5999
 4747TIP3    H235801   6.061   0.877   7.339 -0.9468  1.2444  1.0341
 4748TIP3   OH235802   5.057   0.857   1.235  0.6919  0.4249 -0.0733
 4748TIP3    H135803   5.125   0.865   1.302  1.3724 -0.8008 -0.5781
 4748TIP3    H235804   5.063   0.766   1.206 -0.9533  0.3853 -0.3703
 4749TIP3   OH235805   4.767   2.258   0.697 -0.4945 -0.4276 -0.3912
 4749TIP3    H135806   4.814   2.332   0.735  1.2117 -0.5366 -2.1266
 4749TIP3    H235807   4.718   2.296   0.624 -1.9568 -0.5802  0.4664
 4750TIP3   OH235808   1.719   5.712   1.588 -0.0585 -0.4479  0.2664
 4750TIP3    H135809   1.659   5.709   1.663  1.8580  0.3559  1.9121
 4750TIP3    H235810   1.765   5.795   1.597  1.2583 -1.0070 -0.9711
 4751TIP3   OH235811   5.705   5.925   1.664 -0.4628 -0.0932 -0.1662
 4751TIP3    H135812   5.768   5.980   1.710  0.9138 -2.7143  1.2997
 4751TIP3    H235813   5.757   5.852   1.629 -2.1787 -0.5041 -2.0734
 4752TIP3   OH235814   4.763   3.590   1.079  0.1627  0.4650 -0.1265
 4752TIP3    H135815   4.675   3.626   1.072 -0.7865 -1.2090  1.9699
 4752TIP3    H235816   4.812   3.655   1.130  0.5774  1.9983 -2.3703
 4753TIP3   OH235817   6.268   1.506   8.108  0.0692 -0.3134  0.4221
 4753TIP3    H135818   6.309   1.423   8.131 -1.5028 -1.4773 -0.7962
 4753TIP3    H235819   6.303   1.527   8.021 -1.5239 -1.1011 -0.4425
 4754TIP3   OH235820   5.943   6.455   7.224  0.1707 -0.6234  1.1091
 4754TIP3    H135821   5.942   6.432   7.317 -2.4000 -2.2515  0.7812
 4754TIP3    H235822   5.879   6.525   7.215  0.5136 -0.3693  0.5749
 4755TIP3   OH235823   4.786   6.500   2.239  0.6636 -0.3623  0.4504
 4755TIP3    H135824   4.705   6.516   2.190  0.2411 -1.8559  0.6312
 4755TIP3    H235825   4.760   6.445   2.312  1.8601 -0.9841  0.4391
 4756TIP3   OH235826   5.435   5.949   0.088 -0.6338 -0.3901 -0.3081
 4756TIP3    H135827   5.477   5.975   0.006 -1.2128 -0.2201 -0.5502
 4756TIP3    H235828   5.489   5.876   0.120 -0.0137 -0.0147 -0.4932
 4757TIP3   OH235829   2.902   1.223   7.467 -0.7149 -0.0164  0.8044
 4757TIP3    H135830   2.874   1.314   7.465 -2.4092 -0.5090 -0.2427
 4757TIP3    H235831   2.970   1.216   7.400 -2.4862 -0.0351 -1.0908
 4758TIP3   OH235832   0.339   2.275   0.582  0.2208 -0.1258  0.3219
 4758TIP3    H135833   0.362   2.253   0.672 -1.0879 -0.1090  0.6835
 4758TIP3    H235834   0.423   2.290   0.538  0.9274  4.5640  2.7009
 4759TIP3   OH235835   2.052   6.574   8.515  0.0676  0.3712  0.0962
 4759TIP3    H135836   2.050   6.576   8.611 -0.7892  0.9116  0.0770
 4759TIP3    H235837   2.131   6.524   8.494 -0.3120 -0.6946  1.0843
 4760TIP3   OH235838   0.171   3.319   0.214  0.3834 -0.5277  0.4633
 4760TIP3    H135839   0.240   3.334   0.149 -0.0596 -2.1997 -0.4700
 4760TIP3    H235840   0.211   3.259   0.277  0.0581 -0.8416  0.3747
 4761TIP3   OH235841   5.766   2.011   0.762  0.5948 -0.3747  0.1454
 4761TIP3    H135842   5.717   1.932   0.784  2.4581 -1.2155  1.5706
 4761TIP3    H235843   5.752   2.070   0.836  1.9963 -0.7898  0.7793
 4762TIP3   OH235844   3.952   3.760   8.143 -0.1236  0.0171 -0.2174
 4762TIP3    H135845   3.984   3.683   8.190  0.6448  1.0709  1.0654
 4762TIP3    H235846   4.028   3.819   8.139 -0.5422  0.5042 -1.6623
 4763TIP3   OH235847   2.216   1.014   7.545  0.6714 -0.8227  0.3472
 4763TIP3    H135848   2.283   1.007   7.478  0.4139  0.1176 -0.0217
 4763TIP3    H235849   2.250   0.963   7.619  1.1136 -1.5649 -0.3625
 4764TIP3   OH235850   3.548   1.870   1.838 -0.1825  0.2120  0.3868
 4764TIP3    H135851   3.494   1.946   1.818 -0.2158 -0.0960 -0.8076
 4764TIP3    H235852   3.612   1.867   1.766 -0.1907 -0.8776  0.4028
 4765TIP3   OH235853   0.419   6.196   7.313 -0.3419  0.2607  0.1690
 4765TIP3    H135854   0.463   6.268   7.359 -0.5785  0.1396  0.5881
 4765TIP3    H235855   0.445   6.207   7.221 -0.4706  0.9552  0.2083
 4766TIP3   OH235856   5.031   2.137   0.599 -0.5910  0.0521  0.0699
 4766TIP3    H135857   5.016   2.078   0.672  1.2392  1.0496  1.3292
 4766TIP3    H235858   4.943   2.164   0.572 -1.3436 -1.2454  1.1166
 4767TIP3   OH235859   1.904   3.124   8.491 -0.4759 -0.2234  0.0382
 4767TIP3    H135860   1.968   3.137   8.561  1.0174 -0.4045 -1.2286
 4767TIP3    H235861   1.867   3.211   8.477  0.4097  0.1601 -0.0215
 4768TIP3   OH235862   6.201   5.631   7.747 -0.0434  0.0726 -0.8640
 4768TIP3    H135863   6.253   5.596   7.819  1.3428  0.8200 -1.4457
 4768TIP3    H235864   6.236   5.588   7.669 -0.2129  0.6592 -1.2762
 4769TIP3   OH235865   2.178   5.230   1.163 -0.1640 -0.1212  0.6208
 4769TIP3    H135866   2.241   5.159   1.164  0.1867  0.1804  0.1155
 4769TIP3    H235867   2.159   5.246   1.070 -0.7438  0.0007  0.7497
 4770TIP3   OH235868   3.715   1.891   1.068 -0.1071  0.1152  0.6432
 4770TIP3    H135869   3.619   1.881   1.069 -0.2660  1.1277 -0.7246
 4770TIP3    H235870   3.729   1.975   1.024  1.4749 -1.3365 -1.9060
 4771TIP3   OH235871   3.035   2.890   8.033  0.1101 -0.4460 -0.3229
 4771TIP3    H135872   2.984   2.816   7.999  1.6121 -1.1756 -1.0664
 4771TIP3    H235873   3.086   2.853   8.105 -0.8504  0.4316  0.8546
 4772TIP3   OH235874   3.931   0.201   1.904  0.2057  0.3370  0.3309
 4772TIP3    H135875   3.980   0.283   1.912 -0.6841  0.7492  1.9205
 4772TIP3    H235876   3.881   0.194   1.985  0.0570 -1.6629  0.1373
 4773TIP3   OH235877   0.179   5.175   0.265 -0.2838  0.2259  0.8708
 4773TIP3    H135878   0.261   5.125   0.274  0.8828  2.0387  0.7326
 4773TIP3    H235879   0.161   5.207   0.353 -1.0795 -0.4529  0.9725
 4774TIP3   OH235880   1.982   2.788   0.518  0.0780 -0.0625  0.2976
 4774TIP3    H135881   1.942   2.701   0.531 -0.4867 -0.7154 -4.0301
 4774TIP3    H235882   2.062   2.786   0.570 -2.2260 -1.2108  4.1914
 4775TIP3   OH235883   0.776   3.316   1.350 -0.0163 -0.9281 -0.9377
 4775TIP3    H135884   0.809   3.326   1.260  0.2108 -1.6076 -0.9376
 4775TIP3    H235885   0.752   3.224   1.356  0.6400 -1.0543 -0.0814
 4776TIP3   OH235886   3.719   4.554   1.110 -0.0538  0.6281 -0.1236
 4776TIP3    H135887   3.628   4.570   1.084  0.2577  3.5213  0.2145
 4776TIP3    H235888   3.771   4.602   1.046  0.9255  3.7852  2.7508
 4777TIP3   OH235889   0.017   0.782   1.488 -0.2424 -0.1582 -0.7974
 4777TIP3    H135890  -0.038   0.708   1.514 -0.6230  0.8062  1.3898
 4777TIP3    H235891   0.095   0.743   1.449 -0.9418 -1.6609 -0.7384
 4778TIP3   OH235892   0.306   3.615   1.382 -0.1956  0.3817 -0.3682
 4778TIP3    H135893   0.315   3.555   1.308 -0.7928  0.0012 -0.1449
 4778TIP3    H235894   0.392   3.657   1.390  0.2114 -0.3831 -0.5854
 4779TIP3   OH235895   1.979   5.393   0.662 -0.3564  0.1530  0.4261
 4779TIP3    H135896   1.911   5.453   0.692 -0.8594 -0.7928  1.2266
 4779TIP3    H235897   2.001   5.424   0.575 -0.3232  1.7369  0.9614
 4780TIP3   OH235898   5.986   4.383   7.852  0.1293  0.5958  0.0053
 4780TIP3    H135899   5.987   4.334   7.769 -1.4178 -0.4018  0.5243
 4780TIP3    H235900   5.966   4.473   7.827 -0.6025  0.2494 -0.6972
 4781TIP3   OH235901   3.886   5.621   7.903  0.1278  0.0047  0.1021
 4781TIP3    H135902   3.886   5.716   7.888 -0.8863  0.0706  0.4259
 4781TIP3    H235903   3.898   5.612   7.998  0.3452 -0.1911  0.0557
 4782TIP3   OH235904   4.846   3.558   7.902  0.1015 -0.3315  0.0747
 4782TIP3    H135905   4.929   3.517   7.926  1.2323  1.1292 -1.1422
 4782TIP3    H235906   4.784   3.485   7.895  1.2705 -1.4395  1.0420
 4783TIP3   OH235907   3.156   4.625   0.420  0.0003  0.1565  0.1715
 4783TIP3    H135908   3.168   4.720   0.417 -0.6506  0.2322 -0.1096
 4783TIP3    H235909   3.093   4.611   0.491  0.1879 -0.0818  0.2950
 4784TIP3   OH235910   5.506   1.753   1.659 -0.4937 -0.2719  0.0699
 4784TIP3    H135911   5.485   1.660   1.664 -0.1872 -0.2827  1.3873
 4784TIP3    H235912   5.559   1.770   1.737 -0.3913  0.9669 -0.2546
 4785TIP3   OH235913   5.100   3.871   0.917  0.0561  0.5820 -0.5332
 4785TIP3    H135914   5.034   3.921   0.965  0.5860  0.4426  0.3661
 4785TIP3    H235915   5.179   3.877   0.971  0.2667 -0.8034 -0.6471
 4786TIP3   OH235916   4.518   3.707   7.475 -0.0729 -0.0376 -0.0610
 4786TIP3    H135917   4.484   3.767   7.541  0.1242 -0.9110  0.8577
 4786TIP3    H235918   4.612   3.700   7.496  0.6643  1.9242 -2.2292
 4787TIP3   OH235919   4.962   2.745   2.243 -0.0251  0.1218  0.0280
 4787TIP3    H135920   5.005   2.771   2.325  1.4408  0.4941 -0.8216
 4787TIP3    H235921   5.007   2.665   2.216 -0.9939 -0.4112 -0.0643
 4788TIP3   OH235922   3.813   4.093   8.098 -0.0690 -0.0113 -0.2021
 4788TIP3    H135923   3.822   4.106   8.004 -0.0547 -2.5704 -0.6289
 4788TIP3    H235924   3.899   4.113   8.134 -0.2823  1.7431 -0.5735
 4789TIP3   OH235925   5.474   2.892   7.270  0.4949  0.2182  0.1608
 4789TIP3    H135926   5.405   2.952   7.241  0.7236  0.6694  0.5134
 4789TIP3    H235927   5.476   2.823   7.205 -0.4100  0.1074  0.2399
 4790TIP3   OH235928   3.279   1.149   7.546  0.1856 -0.8362  0.1577
 4790TIP3    H135929   3.269   1.185   7.458  0.6923  0.1952  0.4999
 4790TIP3    H235930   3.335   1.072   7.534  0.6388 -0.4365 -0.3678
 4791TIP3   OH235931   1.375   0.037   0.359  0.2509  0.9231 -0.3233
 4791TIP3    H135932   1.405   0.077   0.440  0.7894  0.8705 -0.4940
 4791TIP3    H235933   1.338  -0.047   0.385 -0.3635  1.2772 -0.0325
 4792TIP3   OH235934   4.680   6.489   0.968  0.0948 -0.6486 -0.2733
 4792TIP3    H135935   4.704   6.411   1.018 -0.1938 -1.1083 -0.8370
 4792TIP3    H235936   4.719   6.562   1.016  1.3867 -1.2481 -0.3925
 4793TIP3   OH235937   4.852   5.316   7.603 -0.9258 -0.1494 -0.1206
 4793TIP3    H135938   4.889   5.325   7.514 -0.2567  2.0689  0.3022
 4793TIP3    H235939   4.758   5.317   7.590 -0.8350  0.0886 -0.8328
 4794TIP3   OH235940   1.943   2.354   1.382 -0.0464 -0.3037 -0.5628
 4794TIP3    H135941   1.941   2.427   1.320  1.7318  0.5018  0.2575
 4794TIP3    H235942   1.902   2.282   1.335 -0.5019  0.8155 -1.9529
 4795TIP3   OH235943   0.969   4.443   7.493  0.5470 -0.1014  0.0600
 4795TIP3    H135944   0.914   4.511   7.454  1.4502  0.0948 -0.9278
 4795TIP3    H235945   0.917   4.363   7.487 -0.0535  0.2808  0.1314
 4796TIP3   OH235946   4.205   1.140   1.738  0.4729 -0.6642  0.2852
 4796TIP3    H135947   4.228   1.124   1.829 -3.4863  0.0498  1.5782
 4796TIP3    H235948   4.198   1.235   1.730 -0.3396 -0.7635 -0.4115
 4797TIP3   OH235949   0.653   0.669   0.328 -0.4985  0.5384  0.0993
 4797TIP3    H135950   0.668   0.749   0.379  0.4841 -0.0237  0.7121
 4797TIP3    H235951   0.708   0.680   0.250  0.6723 -0.1019  0.8117
 4798TIP3   OH235952   0.130   1.693   8.071  0.1421  0.0808 -0.0158
 4798TIP3    H135953   0.073   1.741   8.131  0.1692 -1.3328  1.1981
 4798TIP3    H235954   0.212   1.682   8.119  0.1366 -1.1519 -0.2576
 4799TIP3   OH235955   0.191   3.532   0.397 -0.4249 -0.3294  0.5130
 4799TIP3    H135956   0.170   3.452   0.349 -0.3469 -0.4043  0.6027
 4799TIP3    H235957   0.253   3.578   0.341  0.2041 -0.7489  0.8543
 4800TIP3   OH235958   0.107   6.399   1.196 -0.1757 -0.4073  0.1351
 4800TIP3    H135959   0.098   6.309   1.226  1.0492 -1.2872 -1.9639
 4800TIP3    H235960   0.160   6.394   1.116  0.7248  2.2614  0.4385
 4801TIP3   OH235961   6.642   3.798   0.005 -0.2232  0.3716  0.5616
 4801TIP3    H135962   6.694   3.722  -0.022  0.2368  1.1664 -0.8916
 4801TIP3    H235963   6.662   3.809   0.098  0.8624 -0.3936  0.4332
 4802TIP3   OH235964   2.149   6.887   8.460 -0.3360 -0.2266 -0.5865
 4802TIP3    H135965   2.123   6.902   8.551 -0.7915  2.1489 -1.0383
 4802TIP3    H235966   2.068   6.893   8.411 -0.2800 -2.7131 -1.0971
 4803TIP3   OH235967   6.335   4.983   1.985  0.2076  0.2562  0.2260
 4803TIP3    H135968   6.321   5.057   1.926 -0.3376  0.2698  0.3710
 4803TIP3    H235969   6.419   4.946   1.957 -0.3099 -0.0762 -0.9197
 4804TIP3   OH235970   1.274   3.539   0.124 -0.2617 -0.5584 -0.2016
 4804TIP3    H135971   1.304   3.553   0.214  0.3464  0.2462 -0.5289
 4804TIP3    H235972   1.209   3.607   0.110  0.2677 -0.1428 -0.6601
 4805TIP3   OH235973   5.171   5.495   1.389  0.2531  0.2540 -0.2722
 4805TIP3    H135974   5.193   5.588   1.386  0.0778  0.2788 -1.1023
 4805TIP3    H235975   5.149   5.478   1.481  2.7013  0.4553  0.4030
 4806TIP3   OH235976   2.753   0.072   8.012  0.0771  0.4710 -0.6813
 4806TIP3    H135977   2.741   0.103   8.102 -1.3222 -2.3900  0.2439
 4806TIP3    H235978   2.840   0.031   8.012  0.3715  1.0929 -0.8413
 4807TIP3   OH235979   5.729   6.804   0.146 -0.2870 -0.0930 -0.7448
 4807TIP3    H135980   5.805   6.855   0.175 -1.0938  0.9282 -0.3987
 4807TIP3    H235981   5.677   6.865   0.094 -1.1654 -0.6179 -0.5027
 4808TIP3   OH235982   4.932   1.831   2.710  0.1605  0.1283 -0.1366
 4808TIP3    H135983   4.988   1.756   2.689  0.8186  0.0810  1.6293
 4808TIP3    H235984   4.843   1.795   2.709  0.2275 -0.0538 -1.8602
 4809TIP3   OH235985   1.895   6.180   1.827 -0.0526  0.2070  0.0031
 4809TIP3    H135986   1.985   6.149   1.814 -0.1849  0.2146 -1.0194
 4809TIP3    H235987   1.902   6.243   1.899  0.0620 -2.8419  2.8615
 4810TIP3   OH235988   5.971   6.343   0.103 -0.2765 -0.3309 -0.3157
 4810TIP3    H135989   5.898   6.329   0.163 -0.4433  0.1346 -0.4028
 4810TIP3    H235990   5.936   6.318   0.017 -0.1250 -0.7371 -0.2566
 4811TIP3   OH235991   6.577   6.543   8.470 -0.2929  0.2214 -0.9088
 4811TIP3    H135992   6.583   6.457   8.426 -1.9061  0.1334 -1.0118
 4811TIP3    H235993   6.533   6.599   8.406 -2.1431  0.2526  0.3331
 4812TIP3   OH235994   0.011   5.795   0.169  0.3436  0.0645 -0.2707
 4812TIP3    H135995   0.022   5.768   0.077  0.9156 -2.5383  0.4819
 4812TIP3    H235996  -0.069   5.750   0.197  0.5783  0.2380  0.7056
 4813TIP3   OH235997   6.615   3.061   8.145  0.0420 -0.3527 -0.0739
 4813TIP3    H135998   6.586   3.146   8.111 -0.0370  0.2357  1.4150
 4813TIP3    H235999   6.676   3.028   8.078  0.2162  0.9550 -0.5781
 4814TIP3   OH236000   0.163   0.626   2.045  0.1289 -0.6090  0.4490
 4814TIP3    H136001   0.073   0.658   2.053 -0.0988 -1.6183  2.6548
 4814TIP3    H236002   0.201   0.639   2.132  1.7339 -1.3275 -0.1031
 4815TIP3   OH236003   2.844   2.085   1.519 -0.3559 -0.8059  1.0652
 4815TIP3    H136004   2.768   2.038   1.486  0.1265  0.5990 -2.5122
 4815TIP3    H236005   2.835   2.174   1.483  0.7233  0.7690  4.3112
 4816TIP3   OH236006   5.683   4.111   1.515  0.0764  0.1437  0.6324
 4816TIP3    H136007   5.733   4.145   1.590  0.2282 -0.5491  0.8484
 4816TIP3    H236008   5.678   4.017   1.530 -2.0221  0.2696  1.0468
 4817TIP3   OH236009   1.354   2.602   1.728  0.1782 -0.1246 -0.2507
 4817TIP3    H136010   1.421   2.535   1.714 -0.2234 -0.4457 -0.6490
 4817TIP3    H236011   1.271   2.558   1.710 -0.2134  0.0273  1.0971
 4818TIP3   OH236012   1.733   0.575   0.072 -0.2417  0.4293 -0.6650
 4818TIP3    H136013   1.689   0.643   0.021 -0.2839  0.8794 -0.0389
 4818TIP3    H236014   1.681   0.496   0.057 -1.4772  1.0164  0.3162
 4819TIP3   OH236015   5.994   5.573   1.651  0.1620  0.0689 -0.0201
 4819TIP3    H136016   5.999   5.529   1.736  0.9820  1.7866  0.8733
 4819TIP3    H236017   6.086   5.580   1.623 -0.0795 -0.1391 -0.8745
 4820TIP3   OH236018   6.487   6.304   1.039 -0.1664 -0.1357  0.1844
 4820TIP3    H136019   6.566   6.269   1.080  0.1190  0.1172 -0.1531
 4820TIP3    H236020   6.450   6.230   0.991  0.5277  0.0489 -0.6659
 4821TIP3   OH236021   3.884   0.594   8.000  0.4225  0.4418 -0.8165
 4821TIP3    H136022   3.888   0.549   8.085  0.4973  0.9248 -0.5633
 4821TIP3    H236023   3.973   0.628   7.987  0.2133  1.0341 -0.7247
 4822TIP3   OH236024   2.882   6.157   7.111  0.5507 -0.2264  0.3732
 4822TIP3    H136025   2.925   6.074   7.094 -0.3310 -0.6730  0.2810
 4822TIP3    H236026   2.806   6.158   7.053 -0.8953 -0.5081  2.1406
 4823TIP3   OH236027   0.597   3.552   7.937  0.3556  0.7432  0.0567
 4823TIP3    H136028   0.633   3.488   7.875  0.2074 -0.8552  1.5180
 4823TIP3    H236029   0.547   3.613   7.883  0.3715 -0.4743 -1.4045
 4824TIP3   OH236030   5.097   0.522   1.972  0.0813 -0.0558 -0.0197
 4824TIP3    H136031   5.103   0.587   2.042 -1.9718 -0.3831  0.5136
 4824TIP3    H236032   5.005   0.499   1.968  0.2817 -0.6860 -2.2934
 4825TIP3   OH236033   4.464   3.849   7.172  0.7297  0.2008 -0.7994
 4825TIP3    H136034   4.507   3.764   7.164 -0.8541 -0.7558  0.2294
 4825TIP3    H236035   4.493   3.882   7.257 -0.5441 -0.4762 -0.0740
 4826TIP3   OH236036   5.480   5.569   7.960 -0.0873  0.1236 -0.4514
 4826TIP3    H136037   5.416   5.525   7.903  0.3295 -1.7006  0.4237
 4826TIP3    H236038   5.435   5.648   7.989 -1.1287 -0.0183 -1.5720
 4827TIP3   OH236039   5.398   5.241   8.122  0.0285 -0.2130  0.0953
 4827TIP3    H136040   5.473   5.194   8.085 -0.9526  0.3943 -2.9739
 4827TIP3    H236041   5.339   5.172   8.151  1.8252 -0.7043  2.9953
 4828TIP3   OH236042   1.858   2.369   8.261  0.3587 -0.7579 -0.0024
 4828TIP3    H136043   1.787   2.420   8.300 -0.2946 -0.0523 -1.9696
 4828TIP3    H236044   1.903   2.431   8.203 -0.7168 -2.4170 -2.8269
 4829TIP3   OH236045   1.365   1.692   2.533 -0.0510 -0.4533 -0.3482
 4829TIP3    H136046   1.287   1.702   2.586  0.2939 -0.2534  0.1263
 4829TIP3    H236047   1.357   1.760   2.466 -0.5468 -0.7904 -0.6399
 4830TIP3   OH236048   3.684   6.304   0.061 -0.2878 -0.0613 -0.4660
 4830TIP3    H136049   3.664   6.394   0.086 -0.6129 -0.2135 -0.1711
 4830TIP3    H236050   3.677   6.303  -0.034 -0.0911  0.2694 -0.4873
 4831TIP3   OH236051   1.918   3.670   7.454 -0.1800 -0.2964 -0.1719
 4831TIP3    H136052   2.002   3.628   7.471  0.2485  0.3892 -0.5157
 4831TIP3    H236053   1.930   3.760   7.487 -0.4122  0.1114 -1.1607
 4832TIP3   OH236054   6.700   6.807   2.256  0.1174  0.0852 -0.5243
 4832TIP3    H136055   6.788   6.829   2.225 -0.3306  0.9334 -1.2265
 4832TIP3    H236056   6.715   6.744   2.327  1.2781  0.0830 -0.7461
 4833TIP3   OH236057   4.956   2.417   0.327 -0.4908 -0.0167  0.2504
 4833TIP3    H136058   4.972   2.427   0.421 -1.6569 -0.1591  0.4849
 4833TIP3    H236059   4.887   2.351   0.321  1.1827 -1.8042 -0.8469
 4834TIP3   OH236060   5.568   6.218   1.548 -0.2333 -0.9436 -0.4552
 4834TIP3    H136061   5.480   6.191   1.573  0.4226 -3.0551 -0.2532
 4834TIP3    H236062   5.575   6.195   1.455  0.0698 -0.6588 -0.5066
 4835TIP3   OH236063   6.229   2.096   0.666  0.7614 -0.0462  0.3331
 4835TIP3    H136064   6.232   2.096   0.570 -1.8921  0.8110  0.1722
 4835TIP3    H236065   6.195   2.009   0.689  0.9214 -0.0690  0.4887
 4836TIP3   OH236066   5.936   3.141   0.663 -0.3186 -0.1018 -0.0978
 4836TIP3    H136067   6.014   3.196   0.659 -1.6892  1.9026 -0.6537
 4836TIP3    H236068   5.914   3.122   0.572 -0.3755 -0.8138  0.0586
 4837TIP3   OH236069   4.394   1.983   1.634 -1.0648 -0.0527 -0.1677
 4837TIP3    H136070   4.349   1.901   1.653  1.0694 -1.1819  0.3659
 4837TIP3    H236071   4.405   1.984   1.539 -0.2178 -0.9291 -0.0975
 4838TIP3   OH236072   3.472   6.508   8.295  0.0309  0.2204  0.4448
 4838TIP3    H136073   3.550   6.563   8.301 -0.1934  0.3822  2.6508
 4838TIP3    H236074   3.401   6.569   8.277 -0.3136  0.8476  3.4888
 4839TIP3   OH236075   6.755   5.250   7.131 -0.3780 -0.0099 -0.0618
 4839TIP3    H136076   6.847   5.224   7.139 -0.7388 -0.6316  3.0058
 4839TIP3    H236077   6.732   5.225   7.042  2.9551  2.1811 -1.7782
 4840TIP3   OH236078   3.645   5.034   2.391 -0.7771 -0.3105  0.1370
 4840TIP3    H136079   3.731   5.048   2.431 -0.9153 -0.4966  0.5005
 4840TIP3    H236080   3.654   4.951   2.344 -0.3806  0.2801 -0.8720
 4841TIP3   OH236081   5.077   4.825   2.743  0.0888 -0.1192  0.2523
 4841TIP3    H136082   5.122   4.879   2.808  0.6146  0.1594 -0.3295
 4841TIP3    H236083   4.987   4.855   2.744  0.0592 -0.2056  0.9411
 4842TIP3   OH236084   3.592   5.769   2.098  0.0918 -0.7784 -0.1561
 4842TIP3    H136085   3.499   5.763   2.116  0.1270  0.9218  0.7922
 4842TIP3    H236086   3.613   5.688   2.052 -1.9866 -0.8664 -1.0591
 4843TIP3   OH236087   1.479   0.120   8.067 -0.4277 -0.0084  0.2024
 4843TIP3    H136088   1.503   0.159   8.151 -0.3120 -1.4996  0.9007
 4843TIP3    H236089   1.430   0.041   8.091  0.8719 -1.2587 -1.1010
 4844TIP3   OH236090   2.031   2.322   6.988  0.3155  0.0829 -0.2403
 4844TIP3    H136091   1.946   2.317   6.945  0.3603  1.7278 -0.5789
 4844TIP3    H236092   2.095   2.316   6.917  0.3924  2.6139 -0.4704
 4845TIP3   OH236093   4.728   0.069   8.490 -0.5210  0.6541 -0.3561
 4845TIP3    H136094   4.753   0.081   8.399  0.7410 -1.1052 -0.2856
 4845TIP3    H236095   4.810   0.056   8.537 -1.2634 -1.1937  0.5614
 4846TIP3   OH236096   1.672   3.289   1.405  0.6501 -0.2836  0.0348
 4846TIP3    H136097   1.683   3.264   1.497  0.3654 -1.0630 -0.1401
 4846TIP3    H236098   1.752   3.258   1.362  1.0494  0.6013  0.1197
 4847TIP3   OH236099   6.810   3.929   7.473 -0.1971  0.3020 -0.4342
 4847TIP3    H136100   6.802   3.974   7.557 -1.5620 -0.4229 -0.1506
 4847TIP3    H236101   6.819   4.000   7.409 -0.5377  0.9251  0.1895
 4848TIP3   OH236102   0.783   1.439   1.342  0.3631 -0.4267  0.1253
 4848TIP3    H136103   0.857   1.424   1.283 -1.6416  0.7026 -2.9012
 4848TIP3    H236104   0.708   1.397   1.299 -0.8300 -1.7968  3.2095
 4849TIP3   OH236105   0.695   3.157   0.879 -0.2336  0.0280  0.3498
 4849TIP3    H136106   0.655   3.079   0.918  1.2787 -1.6865 -1.3250
 4849TIP3    H236107   0.674   3.151   0.786  2.6935 -0.2726 -0.3982
 4850TIP3   OH236108   3.994   4.426   7.932 -0.1714  0.5175  0.1030
 4850TIP3    H136109   3.962   4.497   7.989 -1.2606  0.9777 -1.0295
 4850TIP3    H236110   3.914   4.384   7.900  0.4600 -1.4753  1.0105
 4851TIP3   OH236111   4.137   0.632   8.479 -0.0265 -0.1077  0.4169
 4851TIP3    H136112   4.093   0.549   8.457  2.5473 -1.9489  1.6909
 4851TIP3    H236113   4.230   0.614   8.464  0.5305  3.1034 -0.6886
 4852TIP3   OH236114   4.624   1.063   0.547 -0.2609 -0.2702 -0.0615
 4852TIP3    H136115   4.689   1.086   0.614  1.1285 -1.4790 -0.9400
 4852TIP3    H236116   4.547   1.038   0.598  0.1317  0.6241  1.0335
 4853TIP3   OH236117   4.364   6.574   0.357  0.5406  0.1401  0.2618
 4853TIP3    H136118   4.274   6.599   0.336  0.7074  1.1151  0.6522
 4853TIP3    H236119   4.399   6.541   0.275 -0.1106 -0.0609  0.0564
 4854TIP3   OH236120   3.996   4.515   8.433  0.0875 -0.7572  0.1480
 4854TIP3    H136121   4.012   4.425   8.461  0.0228 -0.5606  0.8442
 4854TIP3    H236122   3.927   4.546   8.492  2.0304  0.6457  1.8169
 4855TIP3   OH236123   0.854   3.306   1.053 -0.4767 -0.9281 -0.5747
 4855TIP3    H136124   0.922   3.336   0.993  0.1183 -1.2612 -0.0691
 4855TIP3    H236125   0.796   3.252   0.999  0.5627 -1.9878 -0.6585
 4856TIP3   OH236126   1.658   0.668   1.712 -0.2852 -0.1022 -0.3903
 4856TIP3    H136127   1.712   0.600   1.753 -0.9584  0.0703  0.8302
 4856TIP3    H236128   1.574   0.663   1.758 -0.8291  0.5838 -1.2881
 4857TIP3   OH236129   0.013   5.445   1.220 -0.0407  0.4141 -0.1328
 4857TIP3    H136130   0.093   5.400   1.193  1.1839  1.9059  0.7865
 4857TIP3    H236131   0.011   5.524   1.166 -0.6143  0.6543  0.2244
 4858TIP3   OH236132   3.205   4.256   1.418 -0.2336  0.2573 -0.2828
 4858TIP3    H136133   3.189   4.345   1.450  0.9428 -0.2628  1.9798
 4858TIP3    H236134   3.132   4.205   1.451 -0.2969  0.1586 -0.5729
 4859TIP3   OH236135   3.568   0.824   3.159 -0.1874  0.5734  0.3659
 4859TIP3    H136136   3.574   0.904   3.210 -0.5267 -0.5648  2.3098
 4859TIP3    H236137   3.475   0.811   3.144 -0.2964 -0.3462  1.6439
 4860TIP3   OH236138   4.362   5.590   0.748 -0.2701  0.2568 -0.1205
 4860TIP3    H136139   4.358   5.661   0.813 -1.2534 -2.3855  2.9563
 4860TIP3    H236140   4.453   5.559   0.754 -0.4719 -0.2543  0.3208
 4861TIP3   OH236141   2.199   0.119   8.093 -0.0335 -0.0155 -0.1644
 4861TIP3    H136142   2.137   0.190   8.079  0.6178  0.6846  0.4077
 4861TIP3    H236143   2.153   0.040   8.062 -0.8829  0.5977 -0.5048
 4862TIP3   OH236144   0.172   1.523   2.203 -0.4522 -0.3107 -0.1242
 4862TIP3    H136145   0.167   1.485   2.115  0.8767 -0.7172 -0.0584
 4862TIP3    H236146   0.124   1.462   2.258 -1.6029  0.1362 -0.6135
 4863TIP3   OH236147   0.120   0.956   1.690 -0.2434  0.2208 -0.3969
 4863TIP3    H136148   0.148   0.935   1.601 -1.1435 -0.6160 -0.5117
 4863TIP3    H236149   0.200   0.980   1.736  0.2535  0.5438 -1.3939
 4864TIP3   OH236150   0.903   1.156   0.436  0.4824  0.3503  0.1716
 4864TIP3    H136151   0.998   1.144   0.440  0.2921 -1.1867  0.9831
 4864TIP3    H236152   0.890   1.220   0.366  2.0888  0.2941 -0.2275
 4865TIP3   OH236153   5.358   4.491   8.229  0.0480 -0.4343  0.1114
 4865TIP3    H136154   5.442   4.532   8.249 -0.4207 -0.0231  1.3539
 4865TIP3    H236155   5.313   4.488   8.313 -1.0452 -0.9647 -0.4775
 4866TIP3   OH236156   3.692   3.882   1.761  0.0288 -0.4091  0.7907
 4866TIP3    H136157   3.714   3.795   1.727  1.0971  0.0121  0.3732
 4866TIP3    H236158   3.732   3.943   1.700 -0.8216  0.3940  1.0078
 4867TIP3   OH236159   6.013   1.809   1.055 -0.5508 -0.0478  0.2071
 4867TIP3    H136160   5.933   1.766   1.085 -1.2421  2.5781  2.5737
 4867TIP3    H236161   6.051   1.846   1.135  2.5806 -0.4424 -0.9988
 4868TIP3   OH236162   3.302   1.517   1.263  0.8953  0.6006  0.1225
 4868TIP3    H136163   3.270   1.431   1.236  1.3828  0.6092 -0.5013
 4868TIP3    H236164   3.253   1.536   1.344 -0.4617  0.4919 -0.6406
 4869TIP3   OH236165   6.380   4.822   0.724  0.0476 -0.2554  0.8236
 4869TIP3    H136166   6.462   4.773   0.729  0.1278 -0.3539 -1.0905
 4869TIP3    H236167   6.312   4.756   0.741  0.2022 -0.9219 -0.9605
 4870TIP3   OH236168   5.083   4.284   8.021  0.0550 -0.2602 -0.3206
 4870TIP3    H136169   5.037   4.199   8.021  0.8013 -0.6987 -1.9037
 4870TIP3    H236170   5.013   4.349   8.018 -0.5211 -0.8089  0.6442
 4871TIP3   OH236171   5.333   5.800   8.033  0.4030 -0.2248  0.1593
 4871TIP3    H136172   5.242   5.777   8.049  0.6830 -0.5437  1.4194
 4871TIP3    H236173   5.376   5.788   8.118  1.5250  0.3527 -0.3058
 4872TIP3   OH236174   4.333   3.584   7.332 -0.7344  0.2734  0.4947
 4872TIP3    H136175   4.390   3.619   7.400  0.9614 -0.2693 -0.6017
 4872TIP3    H236176   4.300   3.661   7.286 -1.6506  0.6308  1.6753
 4873TIP3   OH236177   3.724   0.444   7.659  0.0757 -0.5768 -0.0571
 4873TIP3    H136178   3.632   0.440   7.686  0.2460 -1.5894  0.4408
 4873TIP3    H236179   3.750   0.352   7.650  0.8084 -0.2939 -1.0303
 4874TIP3   OH236180   5.596   5.527   2.621 -0.0465 -0.0815  0.0311
 4874TIP3    H136181   5.667   5.473   2.655 -0.7339 -0.0999  1.5253
 4874TIP3    H236182   5.517   5.475   2.634 -0.4978  0.5165 -0.2547
 4875TIP3   OH236183   5.771   3.523   7.905 -0.2380  0.0009 -0.0100
 4875TIP3    H136184   5.815   3.522   7.820 -0.2910  1.2503 -0.0762
 4875TIP3    H236185   5.754   3.616   7.922  3.2198  0.2840  3.1502
 4876TIP3   OH236186   1.578   1.960   1.004 -0.1197  0.7027 -0.6197
 4876TIP3    H136187   1.648   2.022   0.984  0.9671 -0.0251  0.7488
 4876TIP3    H236188   1.617   1.874   0.987 -0.5240  0.2651  0.5793
 4877TIP3   OH236189   2.906   2.116   1.789 -0.0852 -0.1532 -0.0523
 4877TIP3    H136190   2.894   2.082   1.700 -1.2239  0.3777 -0.1205
 4877TIP3    H236191   2.861   2.053   1.845  1.1432 -0.8100  0.2331
 4878TIP3   OH236192   3.207   4.692   1.320  0.5755  0.5574 -0.0031
 4878TIP3    H136193   3.245   4.690   1.232 -0.0668  1.1450 -0.2997
 4878TIP3    H236194   3.118   4.659   1.309  0.6273  0.2433  0.5019
 4879TIP3   OH236195   0.046   6.454   7.513  0.4668  0.1007 -0.3450
 4879TIP3    H136196   0.051   6.549   7.502 -1.9938  0.4330  0.8773
 4879TIP3    H236197  -0.018   6.425   7.448  1.1042 -0.7311 -0.6218
 4880TIP3   OH236198   6.268   0.292   1.678  0.1526  0.6799 -0.4150
 4880TIP3    H136199   6.203   0.282   1.608 -1.7371  0.9488  1.2131
 4880TIP3    H236200   6.246   0.223   1.741  0.2870  1.9165  1.0353
 4881TIP3   OH236201   3.082   3.138   1.328  0.4174  0.3633 -0.8137
 4881TIP3    H136202   3.095   3.044   1.318 -0.1389 -0.0818  1.8269
 4881TIP3    H236203   3.155   3.178   1.282  1.1338 -1.3867 -1.2580
 4882TIP3   OH236204   0.785   1.165   2.972  0.1135 -0.1629 -0.5511
 4882TIP3    H136205   0.784   1.253   2.935  1.6095  0.1987  0.2123
 4882TIP3    H236206   0.692   1.144   2.987 -0.2100  1.7592  0.3679
 4883TIP3   OH236207   1.666   1.435   1.289  0.0022 -0.0323 -0.5399
 4883TIP3    H136208   1.586   1.467   1.331 -2.6479 -0.2216 -4.8003
 4883TIP3    H236209   1.646   1.345   1.263  1.4770 -0.0026 -1.9698
 4884TIP3   OH236210   5.470   4.933   0.117 -0.4408 -0.2258 -0.0151
 4884TIP3    H136211   5.454   5.005   0.177 -0.9540 -1.2469  1.1234
 4884TIP3    H236212   5.475   4.856   0.173  4.8863 -0.6177 -0.5598
 4885TIP3   OH236213   1.946   5.892   1.583 -0.1865 -0.3613 -0.0975
 4885TIP3    H136214   2.038   5.881   1.559  0.0911 -0.0572  0.7774
 4885TIP3    H236215   1.948   5.914   1.676 -1.1377 -0.1874 -0.1057
 4886TIP3   OH236216   1.923   0.828   2.670  0.7031  1.0388  0.1676
 4886TIP3    H136217   1.927   0.734   2.655  3.1769  0.5965  2.6135
 4886TIP3    H236218   1.987   0.865   2.609  0.1683  1.0697 -0.3775
 4887TIP3   OH236219   1.758   5.643   8.105 -0.3502 -0.6158  0.1632
 4887TIP3    H136220   1.754   5.668   8.197  0.5695 -0.7524  0.2484
 4887TIP3    H236221   1.797   5.556   8.105 -0.4056 -0.6436 -0.3544
 4888TIP3   OH236222   0.807   3.270   7.136  0.4218  0.1792 -0.1605
 4888TIP3    H136223   0.774   3.218   7.062  1.1610  1.1133 -1.1851
 4888TIP3    H236224   0.886   3.224   7.163  1.0312  0.6905 -1.0145
 4889TIP3   OH236225   6.763   0.257   0.093 -0.0549 -0.1323  0.1001
 4889TIP3    H136226   6.801   0.217   0.171  0.8916 -1.2130 -0.8738
 4889TIP3    H236227   6.835   0.305   0.052 -0.4730  0.2106 -0.2485
 4890TIP3   OH236228   1.808   4.313   0.087 -0.2729 -0.0806  0.5081
 4890TIP3    H136229   1.843   4.374   0.022 -1.9046  0.3462 -0.0304
 4890TIP3    H236230   1.835   4.227   0.056 -0.1478  0.1966 -0.1704
 4891TIP3   OH236231   4.864   0.567   1.585 -0.1740  0.0271 -0.4579
 4891TIP3    H136232   4.955   0.542   1.573 -0.8022 -2.2739 -0.8602
 4891TIP3    H236233   4.831   0.508   1.653 -1.2927  1.0214 -0.0900
 4892TIP3   OH236234   3.688   3.586   2.044  0.5199 -0.0620 -0.0401
 4892TIP3    H136235   3.613   3.635   2.010  0.9423  0.1320 -0.7176
 4892TIP3    H236236   3.758   3.651   2.049 -0.0165  0.4469  3.1726
 4893TIP3   OH236237   4.866   0.479   1.190 -0.3020  0.2121  0.6802
 4893TIP3    H136238   4.962   0.485   1.196 -0.4288  1.8867  1.5571
 4893TIP3    H236239   4.848   0.488   1.097  0.3540  0.9115  0.6066
 4894TIP3   OH236240   0.182   4.130   7.221  0.0060  0.2625 -0.0446
 4894TIP3    H136241   0.204   4.130   7.128  0.2554  1.1739 -0.0017
 4894TIP3    H236242   0.213   4.215   7.252  0.5577 -0.3117  1.0303
 4895TIP3   OH236243   5.394   2.176   0.673  0.0192  0.2069 -0.6232
 4895TIP3    H136244   5.423   2.109   0.735  1.4694  2.6443  1.5614
 4895TIP3    H236245   5.317   2.215   0.714  0.0035  0.7636 -1.1621
 4896TIP3   OH236246   2.530   5.168   6.828  0.5149 -0.1711 -0.1946
 4896TIP3    H136247   2.437   5.180   6.806  0.4479  0.6651  0.4900
 4896TIP3    H236248   2.529   5.118   6.909  0.5539  1.9311  1.1733
 4897TIP3   OH236249   0.840   2.306   8.188 -0.5389  0.2325 -0.8591
 4897TIP3    H136250   0.772   2.259   8.236 -0.0194  1.1791  0.8691
 4897TIP3    H236251   0.792   2.360   8.125 -1.6246  2.4051  1.6410
 4898TIP3   OH236252   3.262   5.986   7.766  0.5500 -0.3118 -0.0834
 4898TIP3    H136253   3.336   6.024   7.718  0.6103  1.1545  1.0859
 4898TIP3    H236254   3.186   6.033   7.735  0.6511  1.0290  1.5406
 4899TIP3   OH236255   2.567   5.002   0.751  0.0149 -0.0258 -0.1248
 4899TIP3    H136256   2.557   5.096   0.737 -1.4999 -0.4386 -2.3916
 4899TIP3    H236257   2.487   4.976   0.795  0.4499 -0.2591  0.5335
 4900TIP3   OH236258   3.006   2.254   7.688 -0.3851  0.1375 -0.2412
 4900TIP3    H136259   3.079   2.255   7.626 -1.8195 -1.2301 -2.0603
 4900TIP3    H236260   2.980   2.162   7.694  0.2811  0.0285  3.2216
 4901TIP3   OH236261   0.482   5.845   2.614  0.6534 -0.2191  0.3424
 4901TIP3    H136262   0.417   5.790   2.658  0.9847  0.5143  1.8339
 4901TIP3    H236263   0.444   5.863   2.528  0.1864 -2.0911  0.1110
 4902TIP3   OH236264   2.327   6.648   0.337  0.0343 -0.2586  0.7357
 4902TIP3    H136265   2.401   6.684   0.387  0.6644 -0.2414 -0.1808
 4902TIP3    H236266   2.349   6.667   0.246 -0.2462 -1.8378  0.3203
 4903TIP3   OH236267   4.244   4.941   8.561 -0.6131 -0.7398 -0.0072
 4903TIP3    H136268   4.252   4.860   8.512  0.9084 -1.5942  1.5390
 4903TIP3    H236269   4.201   4.917   8.643  0.2628 -0.1058  0.6668
 4904TIP3   OH236270   3.662   0.350   1.209 -0.4368  0.1140 -0.0404
 4904TIP3    H136271   3.757   0.353   1.217 -0.3940  0.9571 -0.7585
 4904TIP3    H236272   3.645   0.283   1.142 -0.4712 -1.5515  1.5456
 4905TIP3   OH236273   4.078   1.584   8.119  0.0150  0.4211 -0.3093
 4905TIP3    H136274   4.153   1.622   8.073  0.6828 -0.7544 -0.2387
 4905TIP3    H236275   4.047   1.655   8.176  0.3145  1.3048 -1.2077
 4906TIP3   OH236276   2.865   2.425   1.709 -0.7480 -0.1443  0.2349
 4906TIP3    H136277   2.868   2.357   1.776 -1.0626  0.5121  0.9305
 4906TIP3    H236278   2.908   2.501   1.749  1.1117 -0.4054 -1.1179
 4907TIP3   OH236279   5.463   1.571   7.150  0.1592 -0.2330 -0.0055
 4907TIP3    H136280   5.452   1.510   7.078  0.4686 -0.0442 -0.2157
 4907TIP3    H236281   5.556   1.568   7.170  0.2502  0.4757 -0.2939
 4908TIP3   OH236282   2.087   0.041   0.174  0.4915 -0.3092 -0.0745
 4908TIP3    H136283   2.001   0.009   0.201  0.9552 -1.4684  0.0760
 4908TIP3    H236284   2.068   0.114   0.115 -0.5720  1.4864  2.3361
 4909TIP3   OH236285   2.253   5.393   0.719 -0.4053  0.3658  0.1059
 4909TIP3    H136286   2.163   5.400   0.688 -0.2171  2.1759 -0.1281
 4909TIP3    H236287   2.282   5.484   0.730  0.8789 -0.1818  1.6838
 4910TIP3   OH236288   2.435   3.643   1.379  0.2518  1.0440  0.1939
 4910TIP3    H136289   2.431   3.735   1.403 -0.7589  1.1224 -0.2140
 4910TIP3    H236290   2.366   3.602   1.432 -0.5379  0.8482 -0.9392
 4911TIP3   OH236291   2.285   6.815   1.825  0.0778  0.4775  0.0063
 4911TIP3    H136292   2.370   6.784   1.794  1.2926  1.0264  2.4970
 4911TIP3    H236293   2.294   6.910   1.827 -0.7580  0.5648 -0.0748
 4912TIP3   OH236294   1.554   1.176   1.236 -0.0213 -0.0506  0.4306
 4912TIP3    H136295   1.470   1.160   1.192  0.4526  0.2818 -0.6276
 4912TIP3    H236296   1.595   1.090   1.243  0.1824 -0.0328 -0.3990
 4913TIP3   OH236297   3.357   1.569   0.978  0.4118  0.7245  0.1428
 4913TIP3    H136298   3.451   1.563   0.962  0.4001 -2.8854  0.6070
 4913TIP3    H236299   3.344   1.529   1.064 -1.5043  1.8070  0.4147
 4914TIP3   OH236300   1.046   1.852   2.177  0.4764 -0.1007  0.0704
 4914TIP3    H136301   1.114   1.808   2.126 -0.7778 -3.6612  1.1711
 4914TIP3    H236302   0.995   1.900   2.111  0.3250 -2.5998 -1.8081
 4915TIP3   OH236303   1.484   3.645   8.549 -0.1376 -0.0660  0.2550
 4915TIP3    H136304   1.427   3.590   8.602  0.1806  0.1608  0.8331
 4915TIP3    H236305   1.429   3.673   8.476 -0.6732 -0.1028  0.6433
 4916TIP3   OH236306   6.359   4.746   7.862 -0.2636  0.1547 -0.1620
 4916TIP3    H136307   6.350   4.714   7.772 -0.1564 -0.2692 -0.0275
 4916TIP3    H236308   6.452   4.739   7.881 -0.0088  1.9433 -0.6173
 4917TIP3   OH236309   6.597   3.888   0.696 -0.1776  0.1472  0.9975
 4917TIP3    H136310   6.523   3.916   0.642  0.1400 -0.9668 -0.0663
 4917TIP3    H236311   6.674   3.923   0.652  0.0342 -0.0285  1.2207
 4918TIP3   OH236312   5.185   2.911   0.280 -0.0848  0.2538  0.3378
 4918TIP3    H136313   5.245   2.985   0.283 -0.5862  0.6741  0.1786
 4918TIP3    H236314   5.240   2.834   0.295  0.9060  0.3882 -2.1825
 4919TIP3   OH236315   0.834   6.321   0.312 -0.1571 -0.0245  0.2991
 4919TIP3    H136316   0.889   6.256   0.355  0.6725  0.3400 -0.1875
 4919TIP3    H236317   0.744   6.293   0.330  0.1865 -0.6728  1.0345
 4920TIP3   OH236318   0.391   4.246   0.320  0.2800 -0.1309 -0.5078
 4920TIP3    H136319   0.375   4.330   0.279 -0.2753  1.7183  3.1221
 4920TIP3    H236320   0.311   4.196   0.306 -0.9862  1.4915  0.5625
 4921TIP3   OH236321   5.054   3.633   8.415  0.1413  0.2031 -0.4180
 4921TIP3    H136322   5.124   3.651   8.478 -0.3047  0.7601 -0.0795
 4921TIP3    H236323   5.047   3.712   8.363  1.0243 -0.5196 -1.6996
 4922TIP3   OH236324   4.796   1.654   0.777  0.2210 -0.4000 -0.0238
 4922TIP3    H136325   4.817   1.688   0.863  1.3485 -0.9763 -0.0480
 4922TIP3    H236326   4.866   1.591   0.758 -1.2485 -2.0341 -0.3642
 4923TIP3   OH236327   2.268   5.208   8.029  0.4976 -0.6076  0.2736
 4923TIP3    H136328   2.271   5.301   8.053  0.2336 -0.6133  0.3319
 4923TIP3    H236329   2.346   5.170   8.069  0.4986 -0.4502  0.4228
 4924TIP3   OH236330   2.244   6.670   8.293 -0.7368  0.0972 -0.2791
 4924TIP3    H136331   2.305   6.609   8.336  0.0762  0.8413 -0.3469
 4924TIP3    H236332   2.216   6.729   8.363  1.1721  1.7859 -0.8423
 4925TIP3   OH236333   0.651   5.665   1.644 -0.0842  0.3495 -0.8854
 4925TIP3    H136334   0.648   5.569   1.637 -0.7653  0.2930  0.0349
 4925TIP3    H236335   0.740   5.684   1.674 -0.5422 -0.1561  0.8957
 4926TIP3   OH236336   3.331   0.392   2.501  0.6637 -0.0816 -0.1071
 4926TIP3    H136337   3.326   0.336   2.424 -2.0001  0.8783 -0.7588
 4926TIP3    H236338   3.354   0.478   2.467  1.0390  0.0157  0.3861
 4927TIP3   OH236339   1.993   4.103   2.381  0.2871  0.1310  0.4612
 4927TIP3    H136340   1.930   4.163   2.420 -1.1563 -0.4145 -0.9362
 4927TIP3    H236341   2.078   4.145   2.396 -0.4010  1.0456  2.0852
 4928TIP3   OH236342   3.190   5.270   2.048 -0.3384  0.4311  0.8313
 4928TIP3    H136343   3.234   5.199   2.094  0.2845 -1.2968 -2.1679
 4928TIP3    H236344   3.255   5.340   2.044  0.3594 -0.2094  0.7274
 4929TIP3   OH236345   6.081   0.683   1.339 -0.3464 -0.4767  0.1301
 4929TIP3    H136346   6.087   0.748   1.269 -1.3517 -0.0126  0.4537
 4929TIP3    H236347   6.094   0.599   1.295 -0.7020 -0.1713 -0.5796
 4930TIP3   OH236348   1.447   6.068   7.200  0.0934 -0.5037 -0.3086
 4930TIP3    H136349   1.380   6.062   7.132 -0.6118 -1.4856  0.4546
 4930TIP3    H236350   1.529   6.045   7.155 -0.0305  0.8077 -1.2648
 4931TIP3   OH236351   6.565   4.726   8.533  0.0531  0.1548  0.0479
 4931TIP3    H136352   6.651   4.769   8.532 -0.0019  0.2945  0.8231
 4931TIP3    H236353   6.518   4.765   8.460  0.6580  0.0533 -0.4087
 4932TIP3   OH236354   0.979   0.728   7.964 -0.5438  0.6063 -0.2895
 4932TIP3    H136355   0.911   0.663   7.981  0.6585 -0.6109  0.0936
 4932TIP3    H236356   0.983   0.735   7.869 -0.8465  0.2866 -0.3271
 4933TIP3   OH236357   2.517   5.563   7.127 -0.6949 -0.1519  0.1364
 4933TIP3    H136358   2.458   5.490   7.143 -0.6887  0.2293  2.1347
 4933TIP3    H236359   2.462   5.632   7.090 -1.2910 -0.1762  0.9674
 4934TIP3   OH236360   1.559   4.085   6.927 -0.2757 -0.1148 -0.8264
 4934TIP3    H136361   1.574   4.178   6.912  0.1048  0.4796  2.4478
 4934TIP3    H236362   1.466   4.071   6.905 -0.2659  0.9624 -1.5909
 4935TIP3   OH236363   0.743   3.489   7.277 -0.1738 -0.4754  0.0187
 4935TIP3    H136364   0.791   3.559   7.233  1.4550 -0.2273  2.0530
 4935TIP3    H236365   0.756   3.412   7.222  1.4242 -0.0787 -0.1973
 4936TIP3   OH236366   6.073   6.062   0.330 -0.6422  0.0417  0.4699
 4936TIP3    H136367   6.157   6.107   0.321 -2.0262  2.6569 -0.4893
 4936TIP3    H236368   6.032   6.101   0.407 -1.2895 -0.6578  0.4938
 4937TIP3   OH236369   6.074   5.033   1.068  0.3094  0.6942  0.3168
 4937TIP3    H136370   5.986   5.021   1.032  0.2669 -0.7351  0.8195
 4937TIP3    H236371   6.105   5.115   1.030 -1.5203  1.6208  0.7186
 4938TIP3   OH236372   5.734   5.299   2.740  0.0526  0.1990  0.8240
 4938TIP3    H136373   5.791   5.228   2.771  2.4068  1.3182 -0.6287
 4938TIP3    H236374   5.717   5.278   2.649 -0.8841  0.5207  0.9127
 4939TIP3   OH236375   1.802   1.833   2.109  0.4676 -0.3915  0.5739
 4939TIP3    H136376   1.820   1.743   2.083 -0.1863  0.0226 -1.5045
 4939TIP3    H236377   1.742   1.826   2.182 -0.8172 -1.6591 -0.5582
 4940TIP3   OH236378   1.135   3.651   8.154  0.0893  0.0235 -0.2069
 4940TIP3    H136379   1.200   3.586   8.181  0.7155  0.7188 -0.0020
 4940TIP3    H236380   1.066   3.600   8.112  1.3883 -0.6181 -1.6699
 4941TIP3   OH236381   5.708   5.656   0.384  0.0964  0.4009  0.3717
 4941TIP3    H136382   5.711   5.710   0.305  2.1785  1.6164  1.1914
 4941TIP3    H236383   5.762   5.580   0.364  2.6729  1.8635  1.3100
 4942TIP3   OH236384   3.517   3.899   0.390 -0.3112  0.2472  0.2394
 4942TIP3    H136385   3.555   3.859   0.468  1.6101  0.8128 -0.3423
 4942TIP3    H236386   3.502   3.990   0.414  0.4342  0.4610 -0.0821
 4943TIP3   OH236387   1.960   2.870   7.875  0.3530 -0.3830  0.6543
 4943TIP3    H136388   1.980   2.953   7.831  0.2492 -0.5195  0.3421
 4943TIP3    H236389   2.044   2.840   7.909  0.2903  0.1358  1.2741
 4944TIP3   OH236390   3.823   4.783   0.271  0.3179  0.5052 -0.0910
 4944TIP3    H136391   3.811   4.777   0.365  0.7541 -1.1093 -0.1101
 4944TIP3    H236392   3.775   4.708   0.235  2.5868 -0.6906 -0.8557
 4945TIP3   OH236393   3.645   6.590   0.777 -0.6413 -0.1879 -0.4677
 4945TIP3    H136394   3.686   6.614   0.860 -1.8368  0.0058  0.0884
 4945TIP3    H236395   3.681   6.503   0.757 -0.6029 -0.3850  0.4249
 4946TIP3   OH236396   1.535   5.104   2.723  0.2455  0.1086 -0.4494
 4946TIP3    H136397   1.623   5.096   2.759  0.1835 -0.5699 -0.4380
 4946TIP3    H236398   1.479   5.062   2.788  0.2668 -2.3508 -1.9009
 4947TIP3   OH236399   5.244   4.401   0.572 -0.4244 -0.2161 -0.2639
 4947TIP3    H136400   5.314   4.387   0.636  0.6552 -1.6435 -1.7152
 4947TIP3    H236401   5.210   4.488   0.594  1.5987  0.4046  0.6528
 4948TIP3   OH236402   0.090   3.904   0.115 -0.1662  0.3726 -0.5894
 4948TIP3    H136403   0.042   3.831   0.156 -0.2506  1.3457  1.1436
 4948TIP3    H236404   0.182   3.885   0.133 -0.2596  1.3399  1.0745
 4949TIP3   OH236405   3.337   2.880   8.208 -0.4771 -0.3381  0.2564
 4949TIP3    H136406   3.377   2.911   8.289 -0.4179 -0.1580  0.1575
 4949TIP3    H236407   3.369   2.790   8.199  0.7605  0.1426 -0.3752
 4950TIP3   OH236408   0.634   0.138   7.803 -0.1568  0.2943 -0.1779
 4950TIP3    H136409   0.573   0.067   7.779  1.7565 -1.6389  0.3510
 4950TIP3    H236410   0.584   0.218   7.789 -3.4235 -1.1919  1.7397
 4951TIP3   OH236411   0.610   5.127   0.886 -0.2589  0.1158  0.2202
 4951TIP3    H136412   0.585   5.186   0.956 -0.7058 -0.3248  0.4349
 4951TIP3    H236413   0.702   5.107   0.903 -0.5683 -0.6011  1.1319
 4952TIP3   OH236414   0.571   1.195   2.413  0.5266 -1.0148 -0.3108
 4952TIP3    H136415   0.572   1.107   2.452  0.5099 -0.8887 -0.0281
 4952TIP3    H236416   0.662   1.210   2.387  0.8821 -0.4418  1.1603
 4953TIP3   OH236417   5.327   6.337   1.029 -0.0363  0.0377  0.1398
 4953TIP3    H136418   5.384   6.398   0.983 -0.2398  1.3653  1.5546
 4953TIP3    H236419   5.253   6.390   1.058 -0.4230 -0.9595  1.0522
 4954TIP3   OH236420   1.463   2.196   7.624 -0.5975 -0.5265 -0.4937
 4954TIP3    H136421   1.518   2.143   7.682 -0.9336  1.2520  1.6135
 4954TIP3    H236422   1.515   2.275   7.608 -1.2742 -0.1962 -1.0989
 4955TIP3   OH236423   4.570   3.421   0.443 -0.2047  0.5634 -0.0771
 4955TIP3    H136424   4.592   3.330   0.420  4.1477  1.4093 -0.1918
 4955TIP3    H236425   4.588   3.427   0.537 -0.4004  1.3283 -0.0821
 4956TIP3   OH236426   3.446   0.554   8.071 -0.2352 -0.8552 -0.1289
 4956TIP3    H136427   3.434   0.464   8.039  3.6658 -1.0438 -1.6470
 4956TIP3    H236428   3.463   0.543   8.165 -2.2898 -1.3316  0.2462
 4957TIP3   OH236429   2.605   2.957   0.724 -0.5962 -0.2405 -0.2715
 4957TIP3    H136430   2.644   2.977   0.638 -1.2608 -0.5841 -0.6605
 4957TIP3    H236431   2.677   2.967   0.786  0.9392 -3.5571 -1.2569
 4958TIP3   OH236432   0.716   2.076   7.188  0.2511 -0.0493  0.0434
 4958TIP3    H136433   0.724   1.984   7.212  1.9655  0.0944  0.1822
 4958TIP3    H236434   0.635   2.105   7.230 -0.1451 -1.3953  0.2728
 4959TIP3   OH236435   0.305   2.549   1.045 -0.4587  0.3103  0.0530
 4959TIP3    H136436   0.220   2.506   1.049 -0.3954  0.2328  0.6926
 4959TIP3    H236437   0.367   2.476   1.035 -0.3034  0.1880  1.7351
 4960TIP3   OH236438   0.282   4.213   8.571 -0.0365  0.1055 -0.1632
 4960TIP3    H136439   0.373   4.210   8.601  0.1441  0.5463 -0.6340
 4960TIP3    H236440   0.247   4.294   8.609 -0.1566  0.0654 -0.1881
 4961TIP3   OH236441   4.747   6.088   0.361 -0.2090 -0.0363  0.5199
 4961TIP3    H136442   4.777   6.018   0.420 -2.6275  0.7599  2.9148
 4961TIP3    H236443   4.823   6.146   0.353  0.3181 -0.3054  2.7180
 4962TIP3   OH236444   3.697   6.450   1.703  0.2280  0.3371 -0.7150
 4962TIP3    H136445   3.681   6.363   1.665 -2.4165  0.7436 -0.7244
 4962TIP3    H236446   3.737   6.432   1.788  0.8716 -0.8336 -1.2400
 4963TIP3   OH236447   1.941   2.899   0.271  0.3808 -0.3299  0.0022
 4963TIP3    H136448   2.026   2.890   0.227  0.7725  0.7673  0.4857
 4963TIP3    H236449   1.943   2.836   0.342  0.6582 -0.5388 -0.1898
 4964TIP3   OH236450   5.028   4.568   0.774  0.3739  0.0409  0.6374
 4964TIP3    H136451   5.122   4.576   0.790  1.2497 -2.6546 -2.0781
 4964TIP3    H236452   5.016   4.600   0.685 -1.6170  1.6948  1.4163
 4965TIP3   OH236453   5.084   5.735   6.887  0.1367  0.0760  0.0557
 4965TIP3    H136454   5.171   5.740   6.927 -0.2489  0.8386  0.8185
 4965TIP3    H236455   5.083   5.807   6.823  0.7371 -1.1105 -1.3569
 4966TIP3   OH236456   2.043   1.602   7.717  0.5537 -0.2918 -0.2090
 4966TIP3    H136457   2.041   1.531   7.782  0.9753 -0.9593 -0.8968
 4966TIP3    H236458   2.137   1.622   7.707  0.4586  0.1400 -0.2610
 4967TIP3   OH236459   6.107   6.475   1.038  0.0151  0.4032  0.3568
 4967TIP3    H136460   6.113   6.568   1.059  1.0581  0.5137 -0.3776
 4967TIP3    H236461   6.173   6.461   0.970  1.9533 -1.4410  2.4517
 4968TIP3   OH236462   5.457   0.011   0.745 -0.3873  0.7000  0.8971
 4968TIP3    H136463   5.465  -0.001   0.651  0.8555 -0.6584  1.1472
 4968TIP3    H236464   5.545  -0.002   0.779 -1.0967 -0.5329  2.3980
 4969TIP3   OH236465   6.201   3.007   0.114 -0.0559 -0.2340 -0.0650
 4969TIP3    H136466   6.198   3.083   0.056 -1.2907 -1.1193 -1.2226
 4969TIP3    H236467   6.269   2.951   0.076  2.7909  1.3294  2.2708
 4970TIP3   OH236468   6.046   5.873   7.971  0.3809 -0.7338  0.6341
 4970TIP3    H136469   5.984   5.943   7.992 -0.0249 -0.9106  0.0776
 4970TIP3    H236470   5.992   5.807   7.926  1.3350  0.0762 -1.8868
 4971TIP3   OH236471   1.696   0.442   1.526 -0.1133  0.4281  0.2451
 4971TIP3    H136472   1.659   0.511   1.581 -1.7871 -0.9456  0.9407
 4971TIP3    H236473   1.770   0.409   1.576 -0.4204  0.5019  0.7537
 4972TIP3   OH236474   5.887   0.737   0.132 -0.5631  0.3890 -0.7114
 4972TIP3    H136475   5.793   0.717   0.135 -1.1385  2.9075  1.1265
 4972TIP3    H236476   5.898   0.783   0.049 -1.1263  0.7260 -0.6079
 4973TIP3   OH236477   6.510   0.492   2.277 -0.3740 -0.7335 -0.5409
 4973TIP3    H136478   6.430   0.443   2.256  0.4958 -2.7469  0.4746
 4973TIP3    H236479   6.485   0.545   2.353 -0.7356 -1.5081 -0.0915
 4974TIP3   OH236480   6.116   2.077   8.288 -1.3637 -0.2664 -0.0345
 4974TIP3    H136481   6.164   2.070   8.371 -1.6673 -2.0498  0.0209
 4974TIP3    H236482   6.143   2.001   8.238 -0.7481  1.0900 -1.8621
 4975TIP3   OH236483   4.209   2.495   0.774  0.0701  0.2572  0.6436
 4975TIP3    H136484   4.254   2.517   0.692 -0.0057 -0.0814  0.5109
 4975TIP3    H236485   4.205   2.578   0.822  0.5114  0.3649  0.4993
 4976TIP3   OH236486   1.379   4.747   0.342 -0.0764 -0.3365  0.6147
 4976TIP3    H136487   1.380   4.834   0.303 -0.4761  0.5384  2.4466
 4976TIP3    H236488   1.471   4.728   0.361 -0.0298 -0.1285  0.5964
 4977TIP3   OH236489   3.562   0.901   0.823  0.2525 -0.2821 -0.0301
 4977TIP3    H136490   3.543   0.807   0.817  0.1105 -0.5721  3.1027
 4977TIP3    H236491   3.616   0.909   0.902 -0.3133  2.3568  0.1757
 4978TIP3   OH236492   6.154   2.156   1.356 -0.3607 -0.1719 -0.7091
 4978TIP3    H136493   6.207   2.164   1.277 -0.6880  1.5358 -0.7871
 4978TIP3    H236494   6.207   2.194   1.425 -0.5286 -0.6413 -0.3106
 4979TIP3   OH236495   6.910   0.844   0.114  0.2044  0.0754 -0.2957
 4979TIP3    H136496   6.818   0.866   0.101  0.7860  2.0463 -1.5726
 4979TIP3    H236497   6.932   0.786   0.041 -0.1122 -0.8026  0.2873
 4980TIP3   OH236498   6.195   1.850   0.135  0.1292  0.2790 -0.0699
 4980TIP3    H136499   6.155   1.875   0.219 -1.0100  1.0345 -0.8113
 4980TIP3    H236500   6.279   1.811   0.160 -0.9362 -1.1679  1.5485
 4981TIP3   OH236501   6.779   6.113   1.466  0.0002  0.3110 -0.1944
 4981TIP3    H136502   6.751   6.025   1.491  0.0792  0.4761  0.5139
 4981TIP3    H236503   6.733   6.171   1.527  1.3753  0.6290  0.6008
 4982TIP3   OH236504   4.361   6.913   2.743 -0.2803  0.1474  0.2323
 4982TIP3    H136505   4.353   6.832   2.692  0.2991 -0.0796  0.5006
 4982TIP3    H236506   4.445   6.905   2.788  0.6381  1.6537 -1.0824
 4983TIP3   OH236507   2.820   1.552   0.251 -0.0143 -0.4507  0.4261
 4983TIP3    H136508   2.867   1.555   0.167  1.2354  0.6447  1.1395
 4983TIP3    H236509   2.817   1.643   0.280 -0.6149 -0.7953  1.4747
 4984TIP3   OH236510   0.916   6.369   2.881  0.8273  0.3105  0.6884
 4984TIP3    H136511   0.965   6.450   2.869  2.4693 -0.7584 -0.4021
 4984TIP3    H236512   0.883   6.373   2.971  2.4745  1.3479  1.2860
 4985TIP3   OH236513   1.285   0.322   1.960 -0.3187 -0.0692 -0.3267
 4985TIP3    H136514   1.343   0.375   2.014  1.7655 -0.7881 -1.7376
 4985TIP3    H236515   1.323   0.327   1.872 -2.6160 -0.3093 -1.4103
 4986TIP3   OH236516   6.532   2.043   8.142  0.4975  0.3670 -0.6596
 4986TIP3    H136517   6.605   2.053   8.081  0.1959  0.5963 -0.9825
 4986TIP3    H236518   6.454   2.043   8.087  0.2745 -0.2611 -0.3517
 4987TIP3   OH236519   0.504   5.185   7.157 -0.4788  0.2962  0.3771
 4987TIP3    H136520   0.589   5.144   7.172  0.5664  2.0788 -0.3372
 4987TIP3    H236521   0.441   5.113   7.163  1.1557 -1.2340  0.0440
 4988TIP3   OH236522   3.628   2.508   1.936  0.1089 -0.2285 -0.1892
 4988TIP3    H136523   3.716   2.485   1.966 -0.6008 -1.2906  1.2530
 4988TIP3    H236524   3.580   2.425   1.938 -1.4157  0.6262  0.8969
 4989TIP3   OH236525   4.312   4.210   1.324 -0.1742 -0.4455 -0.1007
 4989TIP3    H136526   4.255   4.261   1.382 -0.7197  0.1057 -1.0983
 4989TIP3    H236527   4.292   4.119   1.344 -1.1125 -0.2586 -0.1531
 4990TIP3   OH236528   6.449   1.540   1.878 -0.0691 -0.2289 -0.3038
 4990TIP3    H136529   6.480   1.625   1.909 -0.8741  0.5509 -1.5331
 4990TIP3    H236530   6.528   1.492   1.854  0.3395  0.7441 -0.9745
 4991TIP3   OH236531   5.473   0.477   7.118  0.2492 -0.8765  0.8793
 4991TIP3    H136532   5.474   0.520   7.033 -1.7128  0.0661  1.2841
 4991TIP3    H236533   5.544   0.413   7.113  1.7669  0.8113 -0.5713
 4992TIP3   OH236534   3.435   4.531   1.399 -0.0612  1.2141  0.1034
 4992TIP3    H136535   3.344   4.557   1.414 -0.9943 -1.9336  0.5886
 4992TIP3    H236536   3.469   4.597   1.338 -3.3282  1.3635 -1.7939
 4993TIP3   OH236537   2.299   4.650   0.444 -0.8280  0.6759  0.1919
 4993TIP3    H136538   2.310   4.556   0.458 -3.3252  0.2233 -0.4138
 4993TIP3    H236539   2.342   4.667   0.360 -1.4110 -0.1937 -0.3000
 4994TIP3   OH236540   5.438   1.711   1.023  0.0389 -0.0457  0.0193
 4994TIP3    H136541   5.425   1.633   0.968 -1.3886 -1.2873  1.9724
 4994TIP3    H236542   5.476   1.677   1.103  3.4325  1.9106 -0.5733
 4995TIP3   OH236543   4.757   6.907   0.831  0.0827  0.0342 -0.6370
 4995TIP3    H136544   4.759   6.867   0.918 -1.9207  0.8083 -0.1963
 4995TIP3    H236545   4.841   6.953   0.824 -0.3832  1.3442  1.5766
 4996TIP3   OH236546   3.415   1.466   0.033 -0.3510 -0.4208 -0.4200
 4996TIP3    H136547   3.441   1.543   0.084 -1.2478 -0.2905 -0.1336
 4996TIP3    H236548   3.478   1.398   0.056 -0.8338 -0.4144  0.9880
 4997TIP3   OH236549   1.831   3.009   0.574 -0.1299 -1.3852  0.7435
 4997TIP3    H136550   1.867   2.925   0.543  0.2248 -0.9825  0.0538
 4997TIP3    H236551   1.832   3.065   0.497 -0.0996 -0.6503  1.2757
 4998TIP3   OH236552   1.598   4.009   1.013  0.0942  0.1891  0.3860
 4998TIP3    H136553   1.673   3.965   1.053 -0.5425 -2.1509 -0.8061
 4998TIP3    H236554   1.534   4.016   1.084 -0.8735 -3.5494  0.0855
 4999TIP3   OH236555   5.503   4.487   7.897  0.6002 -0.1653 -0.3319
 4999TIP3    H136556   5.558   4.524   7.828  2.9384 -0.1596  1.3867
 4999TIP3    H236557   5.505   4.393   7.881  2.3307 -0.3104  0.4329
 5000TIP3   OH236558   3.772   1.919   0.650 -0.6439  0.2569  0.4013
 5000TIP3    H136559   3.830   1.852   0.685 -0.4225 -0.8650 -1.9362
 5000TIP3    H236560   3.686   1.898   0.686 -0.1740  0.0778  1.4482
 5001TIP3   OH236561   4.163   0.505   7.974  0.3160 -0.2409 -0.6317
 5001TIP3    H136562   4.148   0.415   8.003  0.7434 -0.1851 -0.2119
 5001TIP3    H236563   4.241   0.533   8.023 -0.7019  0.8706  0.4383
 5002TIP3   OH236564   1.354   1.779   1.634  0.1819  0.2368 -0.3333
 5002TIP3    H136565   1.296   1.800   1.562  1.2509  0.5360 -1.1274
 5002TIP3    H236566   1.302   1.796   1.713 -0.3241  1.9291 -0.9957
 5003TIP3   OH236567   4.974   5.904   7.870 -0.4836 -0.3317 -0.1661
 5003TIP3    H136568   5.030   5.980   7.858 -1.4901  0.6007  0.8573
 5003TIP3    H236569   4.974   5.861   7.785  1.4487 -0.1604 -0.3100
 5004TIP3   OH236570   3.598   4.009   8.249  0.6281 -0.8253 -0.1947
 5004TIP3    H136571   3.668   4.033   8.189  0.0360 -1.4706 -1.1727
 5004TIP3    H236572   3.643   3.975   8.327  1.4110  0.5154 -0.0392
 5005TIP3   OH236573   3.208   2.672   0.771 -0.0928 -0.4363  0.4031
 5005TIP3    H136574   3.265   2.732   0.819 -0.6046 -0.1746  0.6870
 5005TIP3    H236575   3.184   2.605   0.836 -0.3763 -0.3614  0.3761
 5006TIP3   OH236576   0.815   5.089   2.433  0.0238 -0.2370 -0.6001
 5006TIP3    H136577   0.758   5.063   2.361 -0.1686 -0.7697 -0.2588
 5006TIP3    H236578   0.869   5.012   2.450  0.8840  0.2727 -0.9452
 5007TIP3   OH236579   1.261   0.284   2.770 -0.0986 -0.3536  0.3092
 5007TIP3    H136580   1.338   0.335   2.743 -1.7645  0.9843 -2.4160
 5007TIP3    H236581   1.262   0.286   2.865  1.6855  2.0436  0.3154
 5008TIP3   OH236582   3.825   0.170   2.852 -0.1233 -0.5441  0.2033
 5008TIP3    H136583   3.860   0.255   2.879  0.4486 -1.1062  1.2926
 5008TIP3    H236584   3.901   0.122   2.818 -0.1028 -1.2192  1.1708
 5009TIP3   OH236585   5.925   3.704   2.508 -0.3067  0.0494  0.3335
 5009TIP3    H136586   5.835   3.673   2.498 -0.4120 -0.0381  1.4222
 5009TIP3    H236587   5.974   3.628   2.539 -0.2705  0.5666  1.6086
 5010TIP3   OH236588   6.702   2.088   2.696 -0.2023 -0.5527  0.8295
 5010TIP3    H136589   6.757   2.056   2.625 -0.5921 -3.5246  1.7383
 5010TIP3    H236590   6.760   2.144   2.748  0.8707 -0.6222 -0.2572
 5011TIP3   OH236591   4.085   0.899   0.877 -0.4078 -0.2373 -0.2194
 5011TIP3    H136592   4.031   0.973   0.905  0.0664 -0.7193  2.0982
 5011TIP3    H236593   4.143   0.882   0.950  0.4404 -2.0535 -1.2513
 5012TIP3   OH236594   1.968   3.074   6.895 -1.3498  0.7638 -0.6200
 5012TIP3    H136595   1.950   3.101   6.805 -0.5498  2.4829 -0.3230
 5012TIP3    H236596   1.920   2.992   6.906  0.2103 -0.6612 -3.2786
 5013TIP3   OH236597   3.051   0.576   1.702  0.0246 -0.1242  0.3151
 5013TIP3    H136598   3.072   0.501   1.757  0.6707  0.4109  0.8159
 5013TIP3    H236599   2.964   0.604   1.731 -0.1222 -0.5309  0.2771
 5014TIP3   OH236600   4.811   5.631   1.140 -0.2623  0.0853 -0.5691
 5014TIP3    H136601   4.898   5.667   1.124 -0.3411  0.3670 -0.3728
 5014TIP3    H236602   4.811   5.609   1.233  0.6065 -2.6553 -1.1152
 5015TIP3   OH236603   0.259   0.362   0.110  0.1040  0.6646 -0.5129
 5015TIP3    H136604   0.247   0.268   0.118 -0.8591  0.7009 -1.3068
 5015TIP3    H236605   0.353   0.376   0.123  0.0795 -0.2444  0.8621
 5016TIP3   OH236606   2.761   1.249   2.610 -0.3001 -0.1352  0.3387
 5016TIP3    H136607   2.815   1.235   2.688  0.7842  2.2129  0.0745
 5016TIP3    H236608   2.671   1.249   2.643  0.1864  1.7936  1.7944
 5017TIP3   OH236609   4.050   0.429   1.737  0.2851 -0.0629  0.7954
 5017TIP3    H136610   4.001   0.489   1.793  2.4646  0.8735  1.7915
 5017TIP3    H236611   4.124   0.481   1.706  0.8200 -1.5096 -0.4581
 5018TIP3   OH236612   0.922   2.419   0.166 -0.1520  0.2771 -0.4480
 5018TIP3    H136613   0.979   2.467   0.227  0.2971 -1.8639  0.9388
 5018TIP3    H236614   0.835   2.426   0.205 -0.4509  1.5310 -1.2862
 5019TIP3   OH236615   2.310   3.616   7.767 -0.2745 -0.1110  0.2502
 5019TIP3    H136616   2.344   3.691   7.816 -1.2425 -0.3986  1.3988
 5019TIP3    H236617   2.387   3.560   7.753  0.0147 -0.0352  1.4745
 5020TIP3   OH236618   3.443   0.432   7.761 -0.5103  0.6471  0.1390
 5020TIP3    H136619   3.363   0.446   7.709 -0.8842 -0.0536  0.5146
 5020TIP3    H236620   3.419   0.364   7.824  0.9934 -1.1839 -1.1325
 5021TIP3   OH236621   4.905   4.792   8.185  0.4532  0.2229 -0.6110
 5021TIP3    H136622   4.862   4.755   8.262 -1.8098  1.1968 -1.3189
 5021TIP3    H236623   4.978   4.842   8.221 -0.6494  0.7924  0.9693
 5022TIP3   OH236624   4.942   4.383   7.054  0.4307 -0.5870 -0.1211
 5022TIP3    H136625   4.872   4.447   7.049 -1.6417 -2.6544  0.6014
 5022TIP3    H236626   5.017   4.425   7.010 -1.0941  1.8632 -0.5485
 5023TIP3   OH236627   2.035   4.676   0.949  0.4726  0.0870 -0.6666
 5023TIP3    H136628   1.983   4.631   0.882 -3.3822  1.8981  0.8423
 5023TIP3    H236629   2.056   4.607   1.012 -0.2839 -0.6641 -1.2060
 5024TIP3   OH236630   3.302   1.656   1.743 -0.0936 -0.1178  0.1636
 5024TIP3    H136631   3.286   1.635   1.835  0.3081 -0.6042  0.1316
 5024TIP3    H236632   3.396   1.672   1.739 -0.1948  0.4116 -0.0690
 5025TIP3   OH236633   6.199   1.882   8.111 -0.1788 -0.2785  0.1161
 5025TIP3    H136634   6.259   1.840   8.049  0.3497  1.3266 -0.5153
 5025TIP3    H236635   6.112   1.866   8.075  0.0664 -0.1942 -0.5311
 5026TIP3   OH236636   2.505   4.967   7.742 -0.0736  0.0673  0.7382
 5026TIP3    H136637   2.509   4.956   7.647  1.4369  0.5818  0.7188
 5026TIP3    H236638   2.440   4.902   7.771 -1.3778  0.6498 -0.7299
 5027TIP3   OH236639   3.260   5.879   7.111  0.0020  0.3261 -0.0304
 5027TIP3    H136640   3.270   5.786   7.093  3.2941  0.8393 -1.6030
 5027TIP3    H236641   3.349   5.914   7.105 -1.0829  3.5409  0.7978
 5028TIP3   OH236642   1.912   3.342   2.664 -0.2636  0.0109  0.7835
 5028TIP3    H136643   1.888   3.431   2.690  0.1228  0.0261  1.1049
 5028TIP3    H236644   1.866   3.286   2.727  1.2948  0.0743  2.0599
 5029TIP3   OH236645   2.752   6.394   0.577 -0.1491  0.2571 -0.3934
 5029TIP3    H136646   2.837   6.374   0.536  0.4725  1.0102  0.4789
 5029TIP3    H236647   2.690   6.337   0.533  0.6364  0.4487 -1.8009
 5030TIP3   OH236648   6.097   1.375   1.987  0.2274 -0.0849  0.0356
 5030TIP3    H136649   6.101   1.384   2.082 -0.4551  1.0497 -0.0211
 5030TIP3    H236650   6.148   1.296   1.968  0.2378 -0.4204  1.3493
 5031TIP3   OH236651   2.604   0.930   2.515  0.2921 -0.2093  0.0822
 5031TIP3    H136652   2.548   1.006   2.530  1.0096  0.1201  1.1881
 5031TIP3    H236653   2.689   0.955   2.550  0.4611 -1.6404  0.7646
 5032TIP3   OH236654   3.632   6.299   0.858 -0.0040 -0.3693 -0.0194
 5032TIP3    H136655   3.613   6.285   0.951  1.1181 -1.5801  0.0625
 5032TIP3    H236656   3.549   6.328   0.821 -0.2608  1.0303  1.5116
 5033TIP3   OH236657   3.455   2.413   7.982  0.3015  0.1052 -0.1535
 5033TIP3    H136658   3.548   2.406   7.961  0.2925  2.1031 -1.0561
 5033TIP3    H236659   3.410   2.381   7.904  0.2235 -0.5658  0.1622
 5034TIP3   OH236660   5.316   3.341   1.218  0.2485  0.3760  0.7730
 5034TIP3    H136661   5.395   3.368   1.170  0.3099  1.2970  1.3670
 5034TIP3    H236662   5.244   3.380   1.170  0.3808  2.3653  2.0538
 5035TIP3   OH236663   2.764   6.778   8.294 -0.7303  0.1693 -0.6237
 5035TIP3    H136664   2.836   6.721   8.320 -0.2573 -0.1099 -2.3800
 5035TIP3    H236665   2.697   6.717   8.260 -1.1139  0.5267 -0.5168
 5036TIP3   OH236666   6.435   2.998   1.518  0.1892  0.3099  0.2397
 5036TIP3    H136667   6.393   2.941   1.583 -1.4750  2.1869  0.9229
 5036TIP3    H236668   6.445   2.942   1.441  1.0588 -1.6242  1.6695
 5037TIP3   OH236669   3.498   0.968   7.504  0.0111 -0.2718  0.1937
 5037TIP3    H136670   3.563   1.028   7.466  0.2604 -1.0292 -0.5946
 5037TIP3    H236671   3.539   0.935   7.584  1.7296 -2.6768 -1.5342
 5038TIP3   OH236672   3.445   2.627   0.255 -0.0273 -0.4070 -0.8660
 5038TIP3    H136673   3.512   2.695   0.261 -0.2625 -0.1281 -1.3005
 5038TIP3    H236674   3.367   2.673   0.223 -0.6634 -0.5710  0.3860
 5039TIP3   OH236675   1.534   5.711   7.672 -0.4771 -0.8734  0.1649
 5039TIP3    H136676   1.562   5.657   7.745  1.1378 -0.3030  0.0026
 5039TIP3    H236677   1.537   5.652   7.596  0.1322 -0.8671  0.1809
 5040TIP3   OH236678   2.850   0.399   1.942  0.6557 -0.4068 -0.0443
 5040TIP3    H136679   2.808   0.423   2.025  1.4219 -0.8363  0.4806
 5040TIP3    H236680   2.941   0.427   1.952  0.3979  1.0209 -1.3852
 5041TIP3   OH236681   1.483   2.292   6.918  0.4570 -0.0146 -0.0296
 5041TIP3    H136682   1.440   2.304   6.833  1.3351 -0.6533 -0.5842
 5041TIP3    H236683   1.509   2.200   6.919  0.4727 -0.0096  0.9303
 5042TIP3   OH236684   0.314   6.028   1.877 -0.3810  0.1048  0.5436
 5042TIP3    H136685   0.327   5.985   1.961  0.4696  1.4116  1.1305
 5042TIP3    H236686   0.252   5.973   1.830  1.0767 -2.0424  0.9971
 5043TIP3   OH236687   6.304   1.183   2.222  0.3642  0.1393 -0.2045
 5043TIP3    H136688   6.380   1.152   2.172  0.6006 -1.9866  1.3138
 5043TIP3    H236689   6.332   1.267   2.259  1.1466  0.4343 -1.3989
 5044TIP3   OH236690   3.004   0.006   8.141 -0.1070 -0.7484  0.7948
 5044TIP3    H136691   3.063   0.068   8.183  1.2409 -1.9775  0.7916
 5044TIP3    H236692   2.934  -0.007   8.205 -0.4430  0.7496  0.7835
 5045TIP3   OH236693   4.866   2.201   0.131  0.0390  0.1545  0.4127
 5045TIP3    H136694   4.774   2.185   0.107  0.5491 -2.0731 -0.3196
 5045TIP3    H236695   4.882   2.142   0.205  0.6688  1.1476  1.0859
 5046TIP3   OH236696   1.014   4.190   7.946  0.3703  0.3147 -0.2227
 5046TIP3    H136697   1.091   4.246   7.941 -1.2057  2.6530  0.0241
 5046TIP3    H236698   0.975   4.195   7.858  1.2814 -2.1564 -0.8416
 5047TIP3   OH236699   6.417   5.386   3.314 -0.0624 -0.3692 -0.3207
 5047TIP3    H136700   6.343   5.445   3.325  1.5107  1.9546 -1.3698
 5047TIP3    H236701   6.379   5.304   3.282 -2.4044 -0.2826  1.9557
 5048TIP3   OH236702   0.288   6.645   6.880 -0.0984 -0.3669  0.3223
 5048TIP3    H136703   0.384   6.644   6.876 -0.0994  0.5729 -1.9008
 5048TIP3    H236704   0.264   6.734   6.853 -1.5877 -1.0718 -0.8863
 5049TIP3   OH236705   4.827   5.548   7.770  0.0791  0.5226 -0.1079
 5049TIP3    H136706   4.907   5.590   7.801  0.0868  0.2841  0.2010
 5049TIP3    H236707   4.858   5.474   7.718  0.0794  1.2842 -1.2474
 5050TIP3   OH236708   5.736   5.444   0.588 -0.3476  0.2478 -0.0949
 5050TIP3    H136709   5.675   5.376   0.560 -0.5922 -0.3315  1.6654
 5050TIP3    H236710   5.808   5.440   0.525 -1.6174  0.2325 -1.5953
 5051TIP3   OH236711   6.554   3.620   8.093 -0.1817 -0.3959  0.3314
 5051TIP3    H136712   6.493   3.646   8.025 -0.8793  0.1684  1.1504
 5051TIP3    H236713   6.551   3.691   8.157  1.9825  0.0684 -0.0031
 5052TIP3   OH236714   1.670   1.355   2.083 -0.4427  0.1466  0.6011
 5052TIP3    H136715   1.617   1.350   2.004 -0.6295  0.9825  0.6587
 5052TIP3    H236716   1.648   1.276   2.132  0.6467 -1.0361 -0.7628
 5053TIP3   OH236717   4.119   0.967   0.182  0.6963 -0.7865 -0.3893
 5053TIP3    H136718   4.141   1.059   0.168 -1.3637  0.0285  1.3062
 5053TIP3    H236719   4.185   0.937   0.244 -0.5340  0.5452  1.6657
 5054TIP3   OH236720   4.023   4.955   2.893  0.2992 -0.0665 -0.2427
 5054TIP3    H136721   3.937   4.946   2.934  1.0769 -1.3547  1.2661
 5054TIP3    H236722   4.018   5.035   2.842 -0.8656  1.5837  2.2351
 5055TIP3   OH236723   4.698   4.383   7.375 -0.0993 -0.6267 -0.4094
 5055TIP3    H136724   4.703   4.320   7.447  0.1710  0.1564  0.2772
 5055TIP3    H236725   4.696   4.329   7.296 -0.1291 -1.4984  0.1726
 5056TIP3   OH236726   2.047   1.030   1.055  0.3106  0.0492  0.1790
 5056TIP3    H136727   2.100   1.065   1.127 -0.3519 -0.4856  0.9577
 5056TIP3    H236728   2.110   0.997   0.992  0.9104  0.2958  0.6428
 5057TIP3   OH236729   6.826   6.684   2.496  0.1656 -0.0078 -0.6259
 5057TIP3    H136730   6.857   6.596   2.475 -0.4488  0.1245 -2.1337
 5057TIP3    H236731   6.907   6.734   2.511  0.5328 -0.6603 -0.3529
 5058TIP3   OH236732   3.682   2.251   2.749 -0.0729  0.0360 -0.1646
 5058TIP3    H136733   3.776   2.263   2.737  0.2353 -0.8252  1.2435
 5058TIP3    H236734   3.672   2.160   2.778 -1.5172 -0.4800 -2.0162
 5059TIP3   OH236735   6.222   2.466   0.255 -0.4684 -0.3186  0.3222
 5059TIP3    H136736   6.254   2.385   0.214  0.2412 -0.2593  0.7285
 5059TIP3    H236737   6.261   2.464   0.343 -0.8023  0.2536  0.4843
 5060TIP3   OH236738   5.485   2.734   8.543  0.2759 -0.2441  0.4416
 5060TIP3    H136739   5.477   2.811   8.486 -1.3343 -0.0148  0.9351
 5060TIP3    H236740   5.395   2.705   8.557  0.7832 -1.4777  1.2763
 5061TIP3   OH236741   2.962   0.197   7.160 -0.0094  0.1421  0.1096
 5061TIP3    H136742   2.987   0.187   7.069 -0.3498 -0.0314  0.0320
 5061TIP3    H236743   2.884   0.143   7.169  0.6018 -0.6594  0.7549
 5062TIP3   OH236744   2.011   0.621   0.017 -0.5909  0.0816  0.0810
 5062TIP3    H136745   1.923   0.584   0.014 -0.7995  0.4908  0.9312
 5062TIP3    H236746   2.061   0.569  -0.047 -1.1784 -0.8487  0.3536
 5063TIP3   OH236747   3.735   3.251   2.193  0.2385 -0.1111  0.4243
 5063TIP3    H136748   3.784   3.174   2.223  1.2626  0.2965 -0.1595
 5063TIP3    H236749   3.735   3.243   2.097  0.1884  0.5183  0.3694
 5064TIP3   OH236750   0.587   0.162   2.161 -0.5333  0.1849  0.2056
 5064TIP3    H136751   0.677   0.158   2.128 -0.8358 -0.3036 -0.5984
 5064TIP3    H236752   0.591   0.117   2.245 -0.1516 -0.4642 -0.1463
 5065TIP3   OH236753   6.836   2.945   7.961 -0.4980 -0.6732 -0.1389
 5065TIP3    H136754   6.847   2.850   7.957 -0.5375 -0.6877  0.0802
 5065TIP3    H236755   6.924   2.979   7.977 -0.5534 -0.7032  0.2446
 5066TIP3   OH236756   4.321   3.594   2.213  0.2135  0.1384 -0.6835
 5066TIP3    H136757   4.313   3.689   2.199  1.3164  0.3364 -0.0747
 5066TIP3    H236758   4.238   3.569   2.255 -0.3328  0.7180 -1.3937
 5067TIP3   OH236759   2.979   1.631   1.125 -0.1037 -0.2815  0.0802
 5067TIP3    H136760   2.964   1.539   1.146  0.4616 -0.4629 -0.2644
 5067TIP3    H236761   2.893   1.667   1.107 -0.1965 -1.1276 -1.2895
 5068TIP3   OH236762   4.102   2.332   1.529  0.3227 -0.3805 -0.2136
 5068TIP3    H136763   4.124   2.423   1.510 -0.8529  0.3915  1.8195
 5068TIP3    H236764   4.007   2.331   1.535  0.2869 -1.8774 -0.7198
 5069TIP3   OH236765   5.431   0.172   8.224  0.0860  0.0767  0.4093
 5069TIP3    H136766   5.418   0.121   8.144  1.6429  0.7634 -0.3242
 5069TIP3    H236767   5.500   0.126   8.271 -1.6858 -1.0568  2.0651
 5070TIP3   OH236768   1.782   5.180   2.084  0.3284 -0.1510  0.3866
 5070TIP3    H136769   1.769   5.105   2.143  0.5048 -1.1493 -0.7938
 5070TIP3    H236770   1.693   5.213   2.067  0.2109 -0.3758  0.5542
 5071TIP3   OH236771   6.317   1.679   8.324  0.0006  0.1430 -0.5739
 5071TIP3    H136772   6.337   1.602   8.271 -0.7879 -1.6017  1.5338
 5071TIP3    H236773   6.253   1.727   8.272 -2.0924 -2.4040 -0.5738
 5072TIP3   OH236774   4.831   5.810   7.451  0.0209  0.0508  0.8425
 5072TIP3    H136775   4.811   5.837   7.361  1.2778  1.3863  0.9166
 5072TIP3    H236776   4.871   5.724   7.442 -3.7234 -1.8552  0.5503
 5073TIP3   OH236777   1.900   1.385   1.430  0.7957 -0.0012 -0.5354
 5073TIP3    H136778   1.913   1.475   1.458 -1.2288 -0.1609  1.0959
 5073TIP3    H236779   1.822   1.388   1.375  0.4161 -0.8018 -0.0595
 5074TIP3   OH236780   3.611   5.930   1.521 -0.3464  0.7812  0.0622
 5074TIP3    H136781   3.707   5.938   1.517 -0.3913  1.1618 -0.5015
 5074TIP3    H236782   3.594   5.886   1.604  0.3547  0.0847 -0.1494
 5075TIP3   OH236783   2.017   3.641   8.188 -0.1329  0.5610 -0.8544
 5075TIP3    H136784   2.063   3.712   8.142 -0.1645  1.2497  0.1458
 5075TIP3    H236785   1.971   3.593   8.119 -0.3428  1.6903 -1.5216
 5076TIP3   OH236786   0.371   5.842   1.015  0.2214  0.1782 -0.0430
 5076TIP3    H136787   0.306   5.909   0.995  0.4934 -0.2035 -2.4668
 5076TIP3    H236788   0.450   5.890   1.038 -0.2346  0.6433  0.5979
 5077TIP3   OH236789   1.774   4.568   7.954 -0.2402  0.3451 -0.4152
 5077TIP3    H136790   1.801   4.550   7.865  0.4399 -0.0322 -0.1392
 5077TIP3    H236791   1.728   4.652   7.949  2.4604  1.9081 -0.6313
 5078TIP3   OH236792   3.269   6.915   1.562  0.7292  0.6618 -0.0542
 5078TIP3    H136793   3.339   6.972   1.595  1.3428 -0.4397  0.6076
 5078TIP3    H236794   3.250   6.856   1.635  1.1623 -0.9508 -1.1970
 5079TIP3   OH236795   5.960   6.300   2.457 -0.4367 -0.0349 -0.4680
 5079TIP3    H136796   5.911   6.382   2.464 -0.5454 -0.1644  0.4537
 5079TIP3    H236797   5.894   6.231   2.466 -0.1952 -0.2138 -0.0371
 5080TIP3   OH236798   2.996   3.390   0.055  0.2274 -0.3784  0.0088
 5080TIP3    H136799   2.910   3.417   0.020 -0.6161  0.8736  2.7756
 5080TIP3    H236800   3.057   3.405  -0.018 -1.5213  1.1201 -1.2479
 5081TIP3   OH236801   5.958   6.455   8.358  0.0905 -0.1523  0.2647
 5081TIP3    H136802   5.939   6.385   8.421  0.2557  0.4875  1.0382
 5081TIP3    H236803   5.932   6.535   8.402  1.8795  0.4916  0.2532
 5082TIP3   OH236804   2.467   1.234   6.309 -0.1762  0.0775  0.1809
 5082TIP3    H136805   2.418   1.163   6.349 -0.1675 -0.1811 -0.2723
 5082TIP3    H236806   2.559   1.211   6.324 -0.1771  0.1403  0.2869
 5083TIP3   OH236807   0.833   2.047   6.772 -0.0343 -0.0694 -0.7964
 5083TIP3    H136808   0.801   2.116   6.715  0.9180 -0.1043 -1.4077
 5083TIP3    H236809   0.815   1.966   6.724 -2.4646 -0.4227  0.5408
 5084TIP3   OH236810   2.571   5.934   1.231  0.1039  0.2166  0.2249
 5084TIP3    H136811   2.602   5.860   1.179  0.2521  1.0720 -0.9473
 5084TIP3    H236812   2.554   5.897   1.318 -0.8933 -1.4195 -0.6177
 5085TIP3   OH236813   0.704   3.055   7.020  0.1339  0.5869 -0.1380
 5085TIP3    H136814   0.748   2.987   6.969 -0.2102 -0.4078  0.8432
 5085TIP3    H236815   0.662   3.111   6.954 -2.0840 -1.8585 -0.9868
 5086TIP3   OH236816   5.826   1.965   8.544  0.4191 -0.0215 -0.1278
 5086TIP3    H136817   5.819   1.878   8.504 -0.3156 -0.7715  1.5568
 5086TIP3    H236818   5.849   1.948   8.635  2.5264  1.6709 -0.2805
 5087TIP3   OH236819   0.769   0.244   8.041  0.0419  0.0871  0.5263
 5087TIP3    H136820   0.699   0.199   7.994  1.0509 -1.4771  0.4365
 5087TIP3    H236821   0.735   0.332   8.057 -2.2071 -0.8206  1.1005
 5088TIP3   OH236822   0.376   3.198   0.373  0.8008  0.2569  0.2729
 5088TIP3    H136823   0.449   3.191   0.312  1.0071 -0.6586  0.6101
 5088TIP3    H236824   0.409   3.253   0.444  0.9147  0.4484  0.0706
 5089TIP3   OH236825   0.103   5.368   2.101 -0.6411 -0.1308 -0.3136
 5089TIP3    H136826   0.174   5.305   2.116  0.4847  0.8274 -1.4401
 5089TIP3    H236827   0.025   5.323   2.134  0.4042 -1.3773  0.5918
 5090TIP3   OH236828   2.311   2.925   7.724 -0.2258 -0.3229 -0.2989
 5090TIP3    H136829   2.250   2.852   7.709 -1.1094  0.6907 -1.9581
 5090TIP3    H236830   2.256   2.995   7.758  0.5627 -0.3042  0.9842
 5091TIP3   OH236831   4.181   5.922   0.882  0.0027 -0.1053 -0.4327
 5091TIP3    H136832   4.274   5.901   0.895 -0.2323 -1.1969 -0.4522
 5091TIP3    H236833   4.134   5.852   0.927 -0.8375  1.2970  0.9657
 5092TIP3   OH236834   0.040   6.436   2.783 -0.3263 -0.7606  0.0512
 5092TIP3    H136835   0.112   6.450   2.844  2.5638 -0.5037 -3.0957
 5092TIP3    H236836  -0.009   6.518   2.784  1.2412  0.2118  0.1575
 5093TIP3   OH236837   6.676   0.609   0.126  0.0615 -0.2516 -0.1065
 5093TIP3    H136838   6.619   0.675   0.168  1.8082  0.8759  0.6300
 5093TIP3    H236839   6.739   0.585   0.195  1.6124 -0.0482 -1.3969
 5094TIP3   OH236840   5.578   3.187   7.460  0.6097 -0.4745 -0.4047
 5094TIP3    H136841   5.662   3.222   7.488 -0.2476  1.4964 -0.0994
 5094TIP3    H236842   5.555   3.122   7.527  1.5282 -0.4928 -0.0932
 5095TIP3   OH236843   3.372   2.081   1.821 -0.6798 -0.0979  0.1841
 5095TIP3    H136844   3.436   2.119   1.882 -0.6442  0.3427 -0.1221
 5095TIP3    H236845   3.291   2.078   1.871 -0.2650 -1.3506  0.8274
 5096TIP3   OH236846   3.050   5.987   8.395  0.0599  0.1512  0.5727
 5096TIP3    H136847   3.065   6.048   8.468  1.0184  0.6062  0.0107
 5096TIP3    H236848   2.957   5.964   8.403 -0.1082  1.0035  1.3158
 5097TIP3   OH236849   1.425   5.172   2.476 -0.3254 -0.1607  0.1252
 5097TIP3    H136850   1.363   5.099   2.471  0.8885 -1.1520 -1.2713
 5097TIP3    H236851   1.473   5.157   2.557 -0.5265 -0.5446  0.1726
 5098TIP3   OH236852   1.799   4.592   0.266  0.7648  0.0098  0.3588
 5098TIP3    H136853   1.875   4.651   0.262  0.8163 -0.1076 -0.9223
 5098TIP3    H236854   1.819   4.524   0.201 -0.6599  0.2727 -0.3972
 5099TIP3   OH236855   5.844   2.155   0.389 -0.1395  0.5581  0.0070
 5099TIP3    H136856   5.769   2.101   0.415 -0.0892 -2.3440 -4.6673
 5099TIP3    H236857   5.805   2.239   0.364 -1.9866 -0.8427 -2.2408
 5100TIP3   OH236858   4.193   5.513   2.961 -0.7608  0.7407 -0.1253
 5100TIP3    H136859   4.185   5.497   2.867  0.4358  1.9969 -0.4747
 5100TIP3    H236860   4.176   5.428   3.001  0.5386 -0.2819 -1.5899
 5101TIP3   OH236861   3.164   4.106   8.389 -0.0307 -0.7999  0.3622
 5101TIP3    H136862   3.151   4.018   8.354  0.5879 -0.4952 -0.6727
 5101TIP3    H236863   3.232   4.144   8.334 -0.2125  0.2939  0.8640
 5102TIP3   OH236864   1.914   4.296   0.693 -0.2331  0.0868 -0.4099
 5102TIP3    H136865   1.879   4.208   0.708  0.1023  0.3023  2.2490
 5102TIP3    H236866   1.982   4.285   0.627 -0.5287 -1.5545 -0.4808
 5103TIP3   OH236867   2.145   6.500   0.527  0.2974  0.1692 -0.3560
 5103TIP3    H136868   2.175   6.563   0.462  0.1103  0.4630 -0.1604
 5103TIP3    H236869   2.169   6.540   0.611  0.7827 -0.3303 -0.2517
 5104TIP3   OH236870   5.062   6.311   6.776 -0.0669 -0.2222 -0.1285
 5104TIP3    H136871   4.976   6.347   6.798 -0.6086 -1.1151 -0.7196
 5104TIP3    H236872   5.076   6.241   6.839 -0.1965 -0.6847 -0.6051
 5105TIP3   OH236873   5.052   5.866   8.285 -0.2131 -0.4263  0.1901
 5105TIP3    H136874   5.140   5.902   8.275  0.2942 -1.6001  0.2856
 5105TIP3    H236875   5.017   5.863   8.197 -0.2883  0.3522  0.1875
 5106TIP3   OH236876   6.465   4.912   1.555  0.0503 -0.3901 -0.1876
 5106TIP3    H136877   6.522   4.988   1.554  1.7493 -1.6072 -1.2854
 5106TIP3    H236878   6.386   4.940   1.509  1.0581  0.4346 -1.4780
 5107TIP3   OH236879   0.033   0.513   1.242  0.4438 -0.5544 -0.1948
 5107TIP3    H136880   0.114   0.468   1.219 -0.5423 -2.2376 -0.5583
 5107TIP3    H236881  -0.005   0.460   1.313 -0.1961  0.3666  0.1724
 5108TIP3   OH236882   5.213   1.269   0.516 -0.0786  0.1706 -0.1667
 5108TIP3    H136883   5.156   1.195   0.538 -1.3760  1.4975  1.0521
 5108TIP3    H236884   5.289   1.258   0.572 -0.1939 -0.3084 -0.0968
 5109TIP3   OH236885   2.900   4.346   8.317  0.3146  0.7907 -0.0814
 5109TIP3    H136886   2.930   4.255   8.320 -2.4859 -0.2254  0.5452
 5109TIP3    H236887   2.977   4.398   8.343  2.1219 -1.3155 -0.8897
 5110TIP3   OH236888   2.276   1.357   1.493 -0.5863 -0.0979 -0.0796
 5110TIP3    H136889   2.211   1.370   1.424 -1.7216  0.1662  1.0071
 5110TIP3    H236890   2.360   1.374   1.449 -1.2233 -0.4421 -1.5072
 5111TIP3   OH236891   0.398   4.022   1.861 -0.6253 -0.2644 -0.0642
 5111TIP3    H136892   0.353   3.966   1.797 -0.5101 -1.7155  1.0698
 5111TIP3    H236893   0.491   4.009   1.842 -0.5838 -0.8930  0.5330
 5112TIP3   OH236894   2.505   6.325   0.390 -0.5497 -0.3099 -0.1763
 5112TIP3    H136895   2.409   6.317   0.392 -0.5586 -0.0675  0.4663
 5112TIP3    H236896   2.521   6.419   0.398 -0.2696 -0.2991 -0.8341
 5113TIP3   OH236897   4.473   4.977   0.466  0.4734 -0.5258 -0.2273
 5113TIP3    H136898   4.451   5.070   0.476 -0.0849 -0.8944  3.8073
 5113TIP3    H236899   4.569   4.975   0.467  0.5100 -0.0137  1.5183
 5114TIP3   OH236900   0.405   1.258   8.247 -0.1941 -0.7377  0.4243
 5114TIP3    H136901   0.342   1.237   8.178  0.5075 -2.1582  0.1748
 5114TIP3    H236902   0.358   1.243   8.329 -1.0352  0.9680  0.2970
 5115TIP3   OH236903   6.344   5.315   0.182 -0.3960 -0.1063 -0.2632
 5115TIP3    H136904   6.330   5.222   0.196 -2.1176  0.0520 -0.7358
 5115TIP3    H236905   6.347   5.353   0.270  0.2620 -0.5741 -0.0727
 5116TIP3   OH236906   3.260   0.216   7.458 -0.0960 -0.4440  0.8346
 5116TIP3    H136907   3.303   0.298   7.480 -1.1944  1.1327 -2.2972
 5116TIP3    H236908   3.326   0.166   7.410 -0.7958  0.7795 -1.5199
 5117TIP3   OH236909   4.222   6.379   0.844  0.7560  0.7395  0.4311
 5117TIP3    H136910   4.296   6.327   0.875  0.9735  0.1419 -1.0411
 5117TIP3    H236911   4.165   6.316   0.801 -0.5705  1.2099  1.4063
 5118TIP3   OH236912   6.891   6.860   0.571  0.6718  1.0060  0.2128
 5118TIP3    H136913   6.947   6.792   0.534 -1.4029 -0.4397 -0.4217
 5118TIP3    H236914   6.942   6.895   0.645  2.0679 -0.7745  0.1666
 5119TIP3   OH236915   2.446   1.135   1.275  0.6081  0.8007  0.4502
 5119TIP3    H136916   2.501   1.130   1.196 -0.6473 -0.6057 -0.4021
 5119TIP3    H236917   2.495   1.087   1.341  0.1024 -1.2427 -0.5558
 5120TIP3   OH236918   6.803   6.646   2.841  0.1085  0.2959 -0.5044
 5120TIP3    H136919   6.839   6.712   2.899 -1.4051  0.3746  0.4204
 5120TIP3    H236920   6.738   6.600   2.895  0.0445 -0.9255 -1.5690
 5121TIP3   OH236921   3.902   2.163   2.445  0.1551  0.7389 -0.0017
 5121TIP3    H136922   3.944   2.116   2.517  0.1677  0.1923 -0.3584
 5121TIP3    H236923   3.809   2.143   2.453  0.0005  1.5962  0.5264
 5122TIP3   OH236924   3.481   1.853   0.723 -0.7813  0.3326  0.1316
 5122TIP3    H136925   3.498   1.856   0.817  1.1731 -0.4165 -0.1612
 5122TIP3    H236926   3.392   1.818   0.716 -0.6339 -0.4438  1.6889
 5123TIP3   OH236927   3.786   3.403   0.589 -0.0213  0.7399 -0.0640
 5123TIP3    H136928   3.824   3.479   0.634  0.0843  0.3239  0.5610
 5123TIP3    H236929   3.709   3.437   0.545 -0.1855  1.1402  0.5208
 5124TIP3   OH236930   4.301   2.500   0.519 -0.8788 -0.1799  0.5249
 5124TIP3    H136931   4.344   2.551   0.451  1.2186 -1.8371  0.4810
 5124TIP3    H236932   4.250   2.434   0.471 -1.1992  0.0302  0.5742
 5125TIP3   OH236933   0.602   0.928   2.488  0.4301 -0.1129  0.0498
 5125TIP3    H136934   0.657   0.858   2.455  1.1091  0.2928  0.2946
 5125TIP3    H236935   0.568   0.895   2.571 -1.2746 -1.1313 -0.9809
 5126TIP3   OH236936   6.293   6.907   7.415  0.0718  0.1513  0.2223
 5126TIP3    H136937   6.366   6.917   7.354 -0.8376 -0.8621 -1.1177
 5126TIP3    H236938   6.253   6.823   7.390 -2.0217  1.0426  0.3520
 5127TIP3   OH236939   6.164   5.268   2.216 -0.4181 -0.1560  0.1614
 5127TIP3    H136940   6.246   5.317   2.216 -0.5443  0.1022  1.9361
 5127TIP3    H236941   6.107   5.317   2.276 -0.7912 -2.0242  1.4081
 5128TIP3   OH236942   6.026   4.356   6.895 -0.3660  0.0160 -0.5125
 5128TIP3    H136943   6.119   4.370   6.911 -0.5983  0.7223  0.2598
 5128TIP3    H236944   5.981   4.416   6.954 -1.3318 -0.7928 -0.3857
 5129TIP3   OH236945   4.545   5.887   7.985 -0.0862 -0.4472  0.1636
 5129TIP3    H136946   4.599   5.965   7.971 -1.1349  0.4825  1.1547
 5129TIP3    H236947   4.581   5.822   7.925  1.3435  0.5328 -0.0766
 5130TIP3   OH236948   2.957   2.050   0.184  0.5934  0.0412  0.2617
 5130TIP3    H136949   2.902   1.983   0.143  0.2358 -0.1474  1.0323
 5130TIP3    H236950   2.895   2.104   0.233  1.1278 -0.4091  1.4625
 5131TIP3   OH236951   3.733   2.985   2.780 -0.3081 -0.7272  0.4773
 5131TIP3    H136952   3.754   3.063   2.832  0.3593  2.0002 -3.4010
 5131TIP3    H236953   3.640   2.969   2.797 -0.8779  1.9516  0.2995
 5132TIP3   OH236954   6.239   5.684   0.590  0.0002 -0.0312  0.9275
 5132TIP3    H136955   6.199   5.728   0.515  2.3114  0.5811 -0.0527
 5132TIP3    H236956   6.167   5.669   0.651 -1.6393  1.1065 -0.6338
 5133TIP3   OH236957   6.214   6.389   7.237  0.1099  1.0004  0.3142
 5133TIP3    H136958   6.128   6.417   7.206  0.0952  0.0144 -0.6132
 5133TIP3    H236959   6.248   6.334   7.166  0.0417 -1.4591  2.0293
 5134TIP3   OH236960   1.168   0.663   8.157 -0.1951  0.4453  0.4924
 5134TIP3    H136961   1.177   0.573   8.125 -0.3117  0.7229 -0.3382
 5134TIP3    H236962   1.108   0.705   8.095 -0.5740  0.9477  1.1856
 5135TIP3   OH236963   4.170   1.279   1.133  0.0790  0.2097  0.7652
 5135TIP3    H136964   4.183   1.352   1.194 -0.1266  1.1114 -0.2409
 5135TIP3    H236965   4.117   1.216   1.182  0.7665  0.4479  1.8612
 5136TIP3   OH236966   1.317   2.466   1.983  0.7129  0.2681  0.0434
 5136TIP3    H136967   1.358   2.381   1.971 -2.6412 -1.2901 -1.8516
 5136TIP3    H236968   1.329   2.511   1.899 -2.2604 -0.7950 -1.1131
 5137TIP3   OH236969   2.412   1.632   0.725  0.9895  0.0310 -0.3191
 5137TIP3    H136970   2.432   1.675   0.809  2.3973 -1.0976 -0.0267
 5137TIP3    H236971   2.320   1.608   0.732  0.6477  1.3821  0.2262
 5138TIP3   OH236972   0.838   5.609   7.315 -0.5936  0.3681  0.3084
 5138TIP3    H136973   0.759   5.561   7.342 -0.6718 -0.1462 -0.7610
 5138TIP3    H236974   0.805   5.680   7.261 -0.3477  0.3949  0.1943
 5139TIP3   OH236975   4.347   3.879   6.770  0.3059 -0.1659  0.0957
 5139TIP3    H136976   4.271   3.933   6.791  1.0249  0.5023  1.0716
 5139TIP3    H236977   4.396   3.930   6.706  0.7608  0.1460  0.6885
 5140TIP3   OH236978   4.941   0.425   6.788 -0.0869  0.5735  0.1731
 5140TIP3    H136979   5.023   0.405   6.744  0.5830  0.2778  1.5179
 5140TIP3    H236980   4.947   0.518   6.810  0.5318  0.2335  1.5344
 5141TIP3   OH236981   3.790   4.656   1.859 -0.2183  0.3897  0.2705
 5141TIP3    H136982   3.716   4.600   1.878 -0.3177  0.5373  0.3226
 5141TIP3    H236983   3.867   4.600   1.873 -0.2478  0.6816  1.8740
 5142TIP3   OH236984   0.203   2.132   8.482  0.6653  0.7549 -0.1016
 5142TIP3    H136985   0.141   2.060   8.497  0.5692  0.8395 -0.0854
 5142TIP3    H236986   0.289   2.091   8.487  0.6381  0.8041  0.7884
 5143TIP3   OH236987   5.607   1.282   0.917  0.1847 -0.3439  0.0597
 5143TIP3    H136988   5.661   1.359   0.900  0.6092 -0.2165  1.8087
 5143TIP3    H236989   5.545   1.310   0.983 -0.1710 -1.2906  0.1479
 5144TIP3   OH236990   2.700   4.596   0.602 -0.3373  0.5909  0.0152
 5144TIP3    H136991   2.738   4.680   0.626  2.8601 -1.2143  1.9711
 5144TIP3    H236992   2.666   4.560   0.684  1.3970 -1.3528 -0.0356
 5145TIP3   OH236993   2.294   2.137   2.146 -0.3878 -0.2457 -0.2248
 5145TIP3    H136994   2.241   2.213   2.121 -1.6281 -0.0450  2.6388
 5145TIP3    H236995   2.237   2.062   2.129 -0.3515 -0.2933 -0.1355
 5146TIP3   OH236996   4.883   6.885   2.500  0.5158  0.2440 -0.3067
 5146TIP3    H136997   4.942   6.854   2.568 -0.8203  0.7533  1.1301
 5146TIP3    H236998   4.837   6.960   2.539  1.2679  1.9763 -2.5231
 5147TIP3   OH236999   0.774   3.882   0.365 -0.6295  0.3723  0.5419
 5147TIP3    H137000   0.731   3.962   0.394 -2.0499 -0.2253  0.1597
 5147TIP3    H237001   0.736   3.813   0.419  2.0526  0.1410  2.3097
 5148TIP3   OH237002   4.563   2.475   7.790  0.3432 -0.6483 -0.4924
 5148TIP3    H137003   4.625   2.538   7.827 -0.0057  0.2935 -1.4471
 5148TIP3    H237004   4.484   2.485   7.843  0.9950 -1.9149  0.7847
 5149TIP3   OH237005   1.852   4.189   0.350 -0.3236  0.3959  1.6208
 5149TIP3    H137006   1.770   4.234   0.331 -0.6305 -0.5780  0.5218
 5149TIP3    H237007   1.892   4.174   0.264  0.6393  0.1907  2.0931
 5150TIP3   OH237008   0.965   3.886   8.221  0.3922  0.4534  0.4540
 5150TIP3    H137009   0.913   3.886   8.141  1.1069  1.3671 -0.0308
 5150TIP3    H237010   1.013   3.803   8.218  1.2681  0.9750 -0.6554
 5151TIP3   OH237011   2.217   0.986   2.048 -0.5758  0.3266 -0.3645
 5151TIP3    H137012   2.220   1.016   1.957 -0.2634  0.4189 -0.3253
 5151TIP3    H237013   2.296   0.934   2.059 -1.5610 -1.2936 -0.6871
 5152TIP3   OH237014   4.294   1.748   2.445 -0.1263 -0.1025 -0.0236
 5152TIP3    H137015   4.266   1.668   2.488  2.6964 -0.7633  0.7410
 5152TIP3    H237016   4.321   1.806   2.516  2.0013 -0.1764 -0.7031
 5153TIP3   OH237017   0.612   1.295   0.764  0.1577 -0.1748  0.1161
 5153TIP3    H137018   0.519   1.307   0.785 -0.5271 -0.3329 -2.5663
 5153TIP3    H237019   0.648   1.383   0.760  0.1225 -0.1076  1.0364
 5154TIP3   OH237020   3.420   5.461   2.596  0.4442  0.4924  0.3509
 5154TIP3    H137021   3.458   5.373   2.602  1.2748  0.8476  0.4204
 5154TIP3    H237022   3.347   5.451   2.535 -0.4353 -0.5615  1.4909
 5155TIP3   OH237023   3.361   5.745   1.464  0.5055 -0.3893 -0.2960
 5155TIP3    H137024   3.436   5.803   1.453 -0.2341  0.4313 -1.1982
 5155TIP3    H237025   3.335   5.755   1.556  0.6967  0.3260 -0.3191
 5156TIP3   OH237026   2.614   0.591   2.924 -0.1782 -0.3728 -0.6550
 5156TIP3    H137027   2.585   0.545   3.003 -1.9479 -0.3322 -1.2553
 5156TIP3    H237028   2.617   0.683   2.950 -0.1908 -0.4243 -0.4703
 5157TIP3   OH237029   0.541   1.864   7.705  0.2585 -0.3494  0.0716
 5157TIP3    H137030   0.580   1.794   7.652  0.1991 -1.9549  2.0332
 5157TIP3    H237031   0.483   1.819   7.766 -3.2282  1.7804 -1.3495
 5158TIP3   OH237032   0.327   2.497   7.485 -0.2299 -0.7806 -0.6510
 5158TIP3    H137033   0.405   2.552   7.496  0.1666 -1.4858  0.2374
 5158TIP3    H237034   0.272   2.518   7.560 -1.4557  0.5438 -1.8602
 5159TIP3   OH237035   0.759   6.401   8.324 -0.5264 -0.2885  0.4697
 5159TIP3    H137036   0.671   6.428   8.351 -0.1955  0.9025  0.4061
 5159TIP3    H237037   0.788   6.340   8.392 -0.3557  1.3712  1.9529
 5160TIP3   OH237038   2.904   5.165   0.570  0.3171 -0.1037 -0.1172
 5160TIP3    H137039   2.994   5.171   0.538  0.0624 -0.5403 -0.9526
 5160TIP3    H237040   2.864   5.248   0.543 -0.0100 -0.6328 -1.3509
 5161TIP3   OH237041   3.647   4.322   1.895 -0.4500  0.1726 -0.1765
 5161TIP3    H137042   3.692   4.343   1.977 -1.2281 -0.0576  0.3222
 5161TIP3    H237043   3.584   4.392   1.883  0.3729  0.7802 -1.1542
 5162TIP3   OH237044   2.977   1.119   0.547  0.1861  0.0673 -0.0336
 5162TIP3    H137045   3.041   1.077   0.604 -0.0851 -0.1389  0.1222
 5162TIP3    H237046   3.012   1.207   0.531 -0.2010  0.4758  1.2412
 5163TIP3   OH237047   0.943   3.696   6.761  0.2871  0.5406 -0.5574
 5163TIP3    H137048   0.908   3.784   6.745  1.8492  1.3437  0.2152
 5163TIP3    H237049   0.905   3.642   6.692 -3.0107  1.1482  0.5914
 5164TIP3   OH237050   6.183   4.924   7.993  0.0877 -0.2104  0.2433
 5164TIP3    H137051   6.241   4.879   7.932  1.5782  1.9997 -0.0631
 5164TIP3    H237052   6.104   4.941   7.943  0.2475 -0.7671 -0.2119
 5165TIP3   OH237053   4.197   4.929   0.992 -0.4281  0.4417  1.2523
 5165TIP3    H137054   4.129   4.911   1.058 -0.6373  1.5198  1.3550
 5165TIP3    H237055   4.190   5.023   0.976 -0.5798  0.1623 -0.5402
 5166TIP3   OH237056   0.694   0.944   7.682  0.5027 -0.0291  0.1196
 5166TIP3    H137057   0.681   0.854   7.652  1.9048 -0.6313  1.1646
 5166TIP3    H237058   0.743   0.986   7.612 -0.7908  0.1724 -0.6992
 5167TIP3   OH237059   0.557   0.562   2.539 -0.2268 -0.0623 -0.4322
 5167TIP3    H137060   0.611   0.541   2.463  0.1876  1.1698 -0.5033
 5167TIP3    H237061   0.603   0.521   2.612  0.4493  0.4082 -0.5818
 5168TIP3   OH237062   0.622   6.339   1.485  0.1649  0.0552  0.0448
 5168TIP3    H137063   0.680   6.276   1.529  0.0090 -0.1262 -0.0106
 5168TIP3    H237064   0.546   6.287   1.458 -0.6540  0.5488  1.3275
 5169TIP3   OH237065   3.500   4.611   0.673 -0.2130 -0.4578  0.0229
 5169TIP3    H137066   3.437   4.646   0.610 -0.2106 -0.4401  0.0301
 5169TIP3    H237067   3.468   4.643   0.758  1.3030  1.9090 -0.1862
 5170TIP3   OH237068   6.636   6.886   1.724  0.2263  0.0235  0.1818
 5170TIP3    H137069   6.652   6.933   1.642  0.9280 -0.0548  0.2680
 5170TIP3    H237070   6.646   6.952   1.792 -2.9311  0.7097  0.1039
 5171TIP3   OH237071   5.913   2.871   1.748 -0.1315  0.1909 -0.0091
 5171TIP3    H137072   5.884   2.784   1.778 -2.1191  0.3940 -1.2033
 5171TIP3    H237073   5.986   2.892   1.806 -0.2649 -1.8269  0.9981
 5172TIP3   OH237074   3.068   5.430   0.468 -0.3216  0.9344  0.6459
 5172TIP3    H137075   3.092   5.373   0.395 -0.0053  2.0005 -0.1019
 5172TIP3    H237076   3.147   5.435   0.521 -0.8487 -0.6711  1.6669
 5173TIP3   OH237077   5.784   5.037   0.934  0.4634  0.0302  0.2794
 5173TIP3    H137078   5.740   5.010   0.854 -1.8123  1.4763  0.9395
 5173TIP3    H237079   5.814   5.127   0.916  0.2971  0.2165  0.8915
 5174TIP3   OH237080   4.335   0.069   2.387  0.1734  0.9498  0.1067
 5174TIP3    H137081   4.254   0.078   2.336 -0.1572 -1.3540  0.1220
 5174TIP3    H237082   4.305   0.067   2.478  0.4661  2.0288  0.2378
 5175TIP3   OH237083   3.781   0.775   0.362 -0.4053  0.3828 -0.5707
 5175TIP3    H137084   3.731   0.739   0.289 -1.0790  0.2618 -0.0584
 5175TIP3    H237085   3.798   0.866   0.337  1.9685 -0.4345 -2.2191
 5176TIP3   OH237086   2.349   0.158   2.139  0.5810  0.0986 -0.3856
 5176TIP3    H137087   2.399   0.100   2.082 -2.1876 -0.3201 -2.5935
 5176TIP3    H237088   2.325   0.232   2.083 -2.3001 -0.3552  0.0817
 5177TIP3   OH237089   3.769   5.586   7.485  0.1345  0.4152  0.3312
 5177TIP3    H137090   3.830   5.526   7.528 -0.3813 -0.6967 -0.4223
 5177TIP3    H237091   3.769   5.557   7.393 -1.5558  0.3505  0.3273
 5178TIP3   OH237092   2.408   1.051   0.366 -0.2465 -0.4578 -0.3778
 5178TIP3    H137093   2.448   1.049   0.280 -0.4554  0.1506 -0.4907
 5178TIP3    H237094   2.480   1.071   0.426 -0.0226 -1.2817 -0.3549
 5179TIP3   OH237095   1.557   2.494   6.616 -0.1411  0.3673  0.0651
 5179TIP3    H137096   1.601   2.547   6.682  2.2432  0.7224 -1.6690
 5179TIP3    H237097   1.594   2.406   6.626 -1.8116 -0.2877  0.9288
 5180TIP3   OH237098   4.766   0.188   7.577  0.4794  0.7836 -0.2136
 5180TIP3    H137099   4.713   0.259   7.540 -0.6489  0.1406  0.1369
 5180TIP3    H237100   4.851   0.229   7.596 -0.5638  2.3914  1.2469
 5181TIP3   OH237101   2.124   1.860   1.111  0.0310 -0.2302 -0.1656
 5181TIP3    H137102   2.176   1.857   1.191 -0.0289  0.6297 -0.0784
 5181TIP3    H237103   2.043   1.814   1.134  0.0335 -0.0347  0.2555
 5182TIP3   OH237104   2.922   3.530   0.310  0.5303 -0.3097 -0.5985
 5182TIP3    H137105   2.975   3.607   0.293  0.3858 -0.2598 -0.8399
 5182TIP3    H237106   2.842   3.545   0.260 -0.1197  0.0569  0.5148
 5183TIP3   OH237107   6.879   4.283   0.181  0.0278 -0.1859  0.1916
 5183TIP3    H137108   6.972   4.291   0.202  0.6095 -2.9590 -0.8105
 5183TIP3    H237109   6.834   4.328   0.252  2.1038 -0.7741  1.9954
 5184TIP3   OH237110   2.134   3.101   0.916  0.0366 -0.1209 -0.6339
 5184TIP3    H137111   2.227   3.089   0.935  0.0998 -0.6191 -1.2197
 5184TIP3    H237112   2.089   3.042   0.978  0.0968  0.2402 -0.2423
 5185TIP3   OH237113   3.478   1.656   0.228  0.1060 -0.3357  0.0461
 5185TIP3    H137114   3.450   1.651   0.319  0.7203 -0.7004  0.2201
 5185TIP3    H237115   3.566   1.619   0.227  0.9742  1.5639 -0.3268
 5186TIP3   OH237116   5.937   3.919   0.729  0.5505 -0.6010  0.2014
 5186TIP3    H137117   5.879   3.861   0.679 -1.9187  1.0021  1.0064
 5186TIP3    H237118   5.964   3.865   0.804 -0.4854 -1.2049  0.1717
 5187TIP3   OH237119   6.595   5.204   7.946 -0.2633 -0.1298 -0.5308
 5187TIP3    H137120   6.516   5.192   7.893 -0.4093  0.6755 -0.5045
 5187TIP3    H237121   6.656   5.247   7.887 -0.3063  0.4540 -0.1464
 5188TIP3   OH237122   5.444   0.335   0.223 -0.5600  0.5174 -0.4907
 5188TIP3    H137123   5.366   0.352   0.170 -1.4600 -2.6527 -0.4153
 5188TIP3    H237124   5.416   0.267   0.284  2.3939 -1.2224 -0.8949
 5189TIP3   OH237125   1.051   2.091   1.546  0.3698  0.1414 -0.2839
 5189TIP3    H137126   1.002   2.064   1.624 -0.5643 -0.9339 -1.2171
 5189TIP3    H237127   1.133   2.126   1.581 -0.0587 -0.2430  1.1866
 5190TIP3   OH237128   6.806   5.496   8.355 -0.2816  0.4530 -0.1294
 5190TIP3    H137129   6.880   5.509   8.296  0.3389 -0.7381  0.3509
 5190TIP3    H237130   6.741   5.448   8.303  0.1607 -0.3678  0.0532
 5191TIP3   OH237131   4.202   2.259   7.099  0.0579 -0.0014 -0.2761
 5191TIP3    H137132   4.186   2.276   7.192 -0.2187  1.7461 -0.6197
 5191TIP3    H237133   4.205   2.163   7.093  0.7590 -0.1508  1.6360
 5192TIP3   OH237134   5.516   5.775   1.979 -0.0269  0.0180 -1.0150
 5192TIP3    H137135   5.572   5.744   2.050 -1.3071 -0.6622 -0.2595
 5192TIP3    H237136   5.519   5.706   1.914 -0.3247 -0.2255 -0.7749
 5193TIP3   OH237137   4.306   4.380   6.833 -0.1572 -0.0043  0.3292
 5193TIP3    H137138   4.234   4.415   6.885  0.5826  3.9071 -0.9542
 5193TIP3    H237139   4.263   4.339   6.757 -1.0803 -2.2686  1.9816
 5194TIP3   OH237140   0.116   0.983   2.501  0.1113  0.2236 -0.3260
 5194TIP3    H137141   0.023   1.003   2.518 -0.3329 -1.3687 -0.7278
 5194TIP3    H237142   0.163   1.059   2.535 -1.2896  0.7251  0.5858
 5195TIP3   OH237143   5.243   2.751   1.216 -0.4100  0.4590  0.6382
 5195TIP3    H137144   5.278   2.838   1.199 -0.7443  0.4583 -0.1176
 5195TIP3    H237145   5.302   2.713   1.281  0.0379  1.0540  0.5839
 5196TIP3   OH237146   5.276   5.744   0.182 -0.4044 -0.0126 -0.2049
 5196TIP3    H137147   5.269   5.693   0.101 -0.3234 -0.1856 -0.1048
 5196TIP3    H237148   5.342   5.811   0.163  0.1363 -0.4952 -0.0557
 5197TIP3   OH237149   4.059   4.287   0.954  0.0606  0.4100 -0.1699
 5197TIP3    H137150   4.109   4.207   0.973  1.3170  1.3407  0.6370
 5197TIP3    H237151   4.107   4.328   0.882  0.2007  1.0905  0.3035
 5198TIP3   OH237152   2.551   5.069   1.495 -0.5232 -0.2220  0.1141
 5198TIP3    H137153   2.581   4.992   1.446 -0.4458 -0.3256  0.3235
 5198TIP3    H237154   2.518   5.034   1.577 -0.2969 -0.0120  0.2954
 5199TIP3   OH237155   6.763   5.080   1.262  0.3261 -0.5010  0.0661
 5199TIP3    H137156   6.858   5.086   1.252  0.2587  0.4104 -0.0797
 5199TIP3    H237157   6.747   4.988   1.282  1.1804 -0.7847 -0.5094
 5200TIP3   OH237158   5.637   1.504   7.551 -0.1916  0.2027 -0.5324
 5200TIP3    H137159   5.714   1.481   7.500  0.1932 -0.4472  0.2960
 5200TIP3    H237160   5.672   1.528   7.637 -0.9150 -0.4554 -0.0319
 5201TIP3   OH237161   5.557   3.302   8.169  0.1333  0.1863  0.2062
 5201TIP3    H137162   5.582   3.306   8.262 -0.6045  0.6814  0.3949
 5201TIP3    H237163   5.573   3.211   8.144 -1.4046 -0.4488  1.3382
 5202TIP3   OH237164   1.922   4.132   6.923  0.0459 -0.0073  0.0869
 5202TIP3    H137165   1.891   4.099   6.839  0.8320  1.5542 -0.8554
 5202TIP3    H237166   2.017   4.123   6.920  0.3669  2.6438 -0.4378
 5203TIP3   OH237167   1.059   3.333   1.316 -0.3958  0.0416 -0.5055
 5203TIP3    H137168   1.026   3.284   1.240  0.4430 -0.8130 -0.3428
 5203TIP3    H237169   1.062   3.267   1.386  1.3380  0.1591 -0.4373
 5204TIP3   OH237170   5.774   1.771   0.548  0.2516  0.3008  0.1566
 5204TIP3    H137171   5.746   1.846   0.497  0.5384  0.1455 -0.2337
 5204TIP3    H237172   5.867   1.763   0.530  1.8300  3.5563  4.8419
 5205TIP3   OH237173   6.574   6.664   7.371 -0.5660 -0.1448 -0.1452
 5205TIP3    H137174   6.611   6.715   7.443 -2.5843  1.7706 -0.3770
 5205TIP3    H237175   6.492   6.708   7.349 -0.5363 -1.2775 -2.9462
 5206TIP3   OH237176   5.924   6.817   2.413 -0.4382 -0.4598 -0.5592
 5206TIP3    H137177   5.889   6.886   2.468 -1.3023 -1.2103 -0.1336
 5206TIP3    H237178   6.010   6.798   2.450 -0.7188 -0.4665  0.1111
 5207TIP3   OH237179   5.401   4.992   1.911  0.3767  0.4775  0.2758
 5207TIP3    H137180   5.362   5.066   1.956 -1.3920 -0.0118 -0.3474
 5207TIP3    H237181   5.455   5.031   1.842  1.8098  1.1879  1.7497
 5208TIP3   OH237182   1.939   5.511   8.343 -0.1518 -0.3163 -0.0087
 5208TIP3    H137183   2.032   5.493   8.355 -0.2831 -0.7643  0.3604
 5208TIP3    H237184   1.915   5.465   8.263 -0.1584 -0.5708  0.1409
 5209TIP3   OH237185   6.800   4.847   8.494  0.3661  0.5741  0.4704
 5209TIP3    H137186   6.832   4.895   8.570  1.6790  0.8881 -0.2590
 5209TIP3    H237187   6.842   4.889   8.419  0.5655 -0.9047 -0.2931
 5210TIP3   OH237188   6.907   1.757   2.427 -0.6493 -0.1368 -0.2521
 5210TIP3    H137189   6.872   1.736   2.341  0.2736 -1.7244 -0.2888
 5210TIP3    H237190   6.853   1.706   2.488 -1.3447  1.0287  0.1361
 5211TIP3   OH237191   2.234   6.276   0.417 -0.2905 -0.1140  0.3323
 5211TIP3    H137192   2.239   6.197   0.470  0.3046  0.1846  0.7323
 5211TIP3    H237193   2.201   6.343   0.476  1.3286  0.4629  0.6491
 5212TIP3   OH237194   6.213   1.483   1.228 -0.1926 -0.0417  0.0542
 5212TIP3    H137195   6.231   1.557   1.285 -0.4835 -0.9459  1.3524
 5212TIP3    H237196   6.297   1.461   1.189 -0.1442  1.0905 -0.5332
 5213TIP3   OH237197   3.432   6.324   2.733  0.7370 -0.4146  0.5015
 5213TIP3    H137198   3.392   6.284   2.810  0.4492  0.8713  1.0515
 5213TIP3    H237199   3.364   6.382   2.698  1.1621 -0.3382 -0.2096
 5214TIP3   OH237200   0.691   4.050   1.842 -0.8873 -0.6490 -0.6259
 5214TIP3    H137201   0.740   4.113   1.789 -1.0253  0.6762  0.7581
 5214TIP3    H237202   0.757   3.992   1.879 -0.6799 -0.8200 -1.2524
 5215TIP3   OH237203   1.381   4.696   2.966  0.4335 -0.8330  0.3875
 5215TIP3    H137204   1.410   4.684   3.057  0.9399 -1.1589  0.1848
 5215TIP3    H237205   1.442   4.644   2.914  0.1037 -0.7024 -0.1379
 5216TIP3   OH237206   2.418   0.135   0.943  0.3728  0.0374  0.4094
 5216TIP3    H137207   2.331   0.173   0.953  0.7504  0.5160  2.2129
 5216TIP3    H237208   2.409   0.073   0.871 -1.7713 -0.8248  1.3576
 5217TIP3   OH237209   1.015   5.438   1.430 -0.6291  0.6165 -0.8896
 5217TIP3    H137210   0.964   5.455   1.509  0.4164 -1.1955  0.2504
 5217TIP3    H237211   1.097   5.486   1.445 -0.9469  1.3738 -1.5171
 5218TIP3   OH237212   2.842   2.434   0.015  0.1158 -0.5322  0.0161
 5218TIP3    H137213   2.934   2.456   0.023  1.0509 -3.5559 -1.2182
 5218TIP3    H237214   2.805   2.505  -0.037  2.2191 -0.3050 -1.2608
 5219TIP3   OH237215   0.960   4.668   0.803  0.1184 -0.0531  0.3214
 5219TIP3    H137216   0.998   4.718   0.875 -0.9664 -2.0129  2.3736
 5219TIP3    H237217   1.032   4.654   0.742  1.3500  0.7062  1.5655
 5220TIP3   OH237218   5.403   6.558   1.878 -0.3492  0.5076  0.0815
 5220TIP3    H137219   5.457   6.615   1.932  2.0412 -1.8380  0.4019
 5220TIP3    H237220   5.386   6.608   1.799  2.1894  1.4518  0.0584
 5221TIP3   OH237221   5.669   4.042   1.148 -0.5739  0.1034 -0.0717
 5221TIP3    H137222   5.729   4.107   1.184  2.4192 -1.9485 -0.9460
 5221TIP3    H237223   5.621   4.088   1.078  1.0036  1.5137 -0.2722
 5222TIP3   OH237224   4.101   1.240   0.114  0.3713 -0.0705  0.5669
 5222TIP3    H137225   4.148   1.271   0.037  2.1070 -2.9588  0.3045
 5222TIP3    H237226   4.008   1.254   0.093  0.8299  4.9983  0.7297
 5223TIP3   OH237227   1.740   3.733   8.408 -0.0712  0.1616 -0.0966
 5223TIP3    H137228   1.730   3.702   8.318  0.1653 -0.2865  0.0304
 5223TIP3    H237229   1.653   3.720   8.448 -0.5370  1.5461 -0.6188
 5224TIP3   OH237230   5.436   0.789   6.716 -0.1895  0.1037  0.4741
 5224TIP3    H137231   5.346   0.820   6.709 -0.5774 -0.1676  3.1685
 5224TIP3    H237232   5.489   0.868   6.719 -0.6201  0.3663  1.5196
 5225TIP3   OH237233   6.182   2.158   1.712 -0.6048  0.2522 -0.2674
 5225TIP3    H137234   6.104   2.169   1.656  0.6589  0.3204 -2.0893
 5225TIP3    H237235   6.170   2.223   1.781 -1.7989  0.8009 -0.9456
 5226TIP3   OH237236   2.377   3.593   0.663  0.4780  0.7121 -0.7914
 5226TIP3    H137237   2.295   3.603   0.711  0.6328 -0.4822 -0.2469
 5226TIP3    H237238   2.440   3.564   0.729  0.4668 -1.9351 -1.8460
 5227TIP3   OH237239   0.078   4.042   8.478 -0.0389 -0.0744  0.4655
 5227TIP3    H137240   0.079   3.976   8.547  0.1091 -0.4408  0.1141
 5227TIP3    H237241   0.131   4.114   8.514  0.4328 -0.4544  0.5449
 5228TIP3   OH237242   4.872   4.329   0.100 -0.4291  0.0542  0.4754
 5228TIP3    H137243   4.865   4.383   0.021  2.1227 -0.9812 -0.5894
 5228TIP3    H237244   4.858   4.390   0.172 -0.3219  1.5892 -0.7449
 5229TIP3   OH237245   2.169   0.175   2.337 -0.4083 -0.4573  0.2861
 5229TIP3    H137246   2.177   0.138   2.425  1.5764  0.7440  0.6905
 5229TIP3    H237247   2.256   0.163   2.298 -1.2355 -0.9077 -1.5148
 5230TIP3   OH237248   6.545   2.083   7.376 -0.5172 -0.0463  0.4408
 5230TIP3    H137249   6.609   2.013   7.362 -0.1392  0.1919  0.9571
 5230TIP3    H237250   6.465   2.051   7.334  0.6008  0.7596 -2.5907
 5231TIP3   OH237251   4.614   0.032   7.819 -0.4392 -0.5704  0.0475
 5231TIP3    H137252   4.659   0.091   7.759 -0.1300 -1.8768 -1.0343
 5231TIP3    H237253   4.582  -0.039   7.764  1.3932 -2.7539  1.6519
 5232TIP3   OH237254   5.931   2.878   0.779 -0.7630  0.7236  0.3778
 5232TIP3    H137255   5.921   2.829   0.697  1.1167  1.2164 -0.2020
 5232TIP3    H237256   5.968   2.962   0.751  2.0603  0.0919  1.8749
 5233TIP3   OH237257   5.646   0.337   1.414  0.5709  0.1351 -0.1710
 5233TIP3    H137258   5.628   0.338   1.508 -3.2319 -2.3360 -0.6364
 5233TIP3    H237259   5.596   0.410   1.378 -0.9223 -0.9806 -0.5009
 5234TIP3   OH237260   1.683   6.821   7.227  0.6505  0.0488 -0.4963
 5234TIP3    H137261   1.724   6.890   7.175 -2.2032  1.0110 -1.6720
 5234TIP3    H237262   1.624   6.777   7.167 -0.0179 -1.3065  1.0589
 5235TIP3   OH237263   6.685   1.457   0.468  0.3073  0.6654 -0.0428
 5235TIP3    H137264   6.780   1.460   0.455  0.6106  1.4845  1.9395
 5235TIP3    H237265   6.673   1.389   0.534 -0.4885  0.6260 -0.2232
 5236TIP3   OH237266   0.829   5.327   7.157 -0.3238 -0.3263  0.1441
 5236TIP3    H137267   0.833   5.414   7.119 -0.0314  0.3318  1.5914
 5236TIP3    H237268   0.766   5.336   7.229 -2.5163 -2.0436 -1.4292
 5237TIP3   OH237269   3.759   1.264   1.127 -0.2156 -0.4163  0.1859
 5237TIP3    H137270   3.671   1.281   1.093  0.2261  0.9442 -0.3293
 5237TIP3    H237271   3.776   1.336   1.188  1.9726  1.6431 -2.5766
 5238TIP3   OH237272   5.288   6.764   7.607 -0.1618 -0.7890 -0.3713
 5238TIP3    H137273   5.360   6.759   7.671 -1.5080 -2.2543  1.1186
 5238TIP3    H237274   5.327   6.730   7.526  0.5926 -2.5803  0.6780
 5239TIP3   OH237275   5.965   2.333   7.785 -0.8279 -0.2569 -0.3571
 5239TIP3    H137276   5.945   2.424   7.760 -3.1813 -0.6212 -0.0636
 5239TIP3    H237277   5.922   2.321   7.869  0.1188 -1.4421 -0.0153
 5240TIP3   OH237278   5.506   3.472   7.842 -0.0396  0.0682  0.0365
 5240TIP3    H137279   5.485   3.542   7.780 -1.5690  0.8030  1.3063
 5240TIP3    H237280   5.571   3.510   7.901 -2.2286  1.1982  1.8867
 5241TIP3   OH237281   1.976   4.823   0.262 -0.3287 -0.0628 -0.3093
 5241TIP3    H137282   2.030   4.859   0.192 -0.8566 -0.5720 -1.0101
 5241TIP3    H237283   1.909   4.890   0.278  1.7565  1.6035  2.1746
 5242TIP3   OH237284   6.841   3.440   0.205 -0.8040 -0.2253 -0.3086
 5242TIP3    H137285   6.764   3.391   0.235 -1.5223  0.4060 -1.0736
 5242TIP3    H237286   6.915   3.381   0.222 -1.0729  0.2171  3.0396
 5243TIP3   OH237287   2.095   3.117   2.862  1.0823  0.8156  0.4723
 5243TIP3    H137288   2.043   3.179   2.914  1.5815  0.4067  1.4947
 5243TIP3    H237289   2.151   3.173   2.808 -0.3985  1.2605 -0.6715
 5244TIP3   OH237290   2.046   2.836   1.745  0.9449 -0.4223  0.3839
 5244TIP3    H137291   2.017   2.884   1.667 -0.9841 -2.1973 -0.1159
 5244TIP3    H237292   1.973   2.845   1.807  1.5301 -0.8112  1.1405
 5245TIP3   OH237293   4.354   6.596   7.999  0.1312 -0.4175 -0.3728
 5245TIP3    H137294   4.320   6.602   8.088 -0.2923  0.0374 -0.5637
 5245TIP3    H237295   4.304   6.660   7.949  1.1967  0.1884 -0.6864
 5246TIP3   OH237296   1.972   6.139   8.008 -0.4062 -0.3507  0.4030
 5246TIP3    H137297   2.048   6.082   8.017  0.2898  0.7162  1.6253
 5246TIP3    H237298   1.897   6.080   8.010  0.2242 -1.1727  2.8433
 5247TIP3   OH237299   0.369   2.340   7.932  0.0205 -0.2281  0.1290
 5247TIP3    H137300   0.436   2.271   7.926  0.8675  0.6073 -0.1982
 5247TIP3    H237301   0.416   2.417   7.963 -1.4502 -0.4965  3.5188
 5248TIP3   OH237302   5.737   4.292   0.176  0.0749  0.5688 -0.3429
 5248TIP3    H137303   5.820   4.278   0.129  1.0161  0.1952  1.3421
 5248TIP3    H237304   5.699   4.204   0.183  1.0202  0.2371  1.4088
 5249TIP3   OH237305   6.648   2.602   2.865  0.0674 -1.0077  0.2059
 5249TIP3    H137306   6.615   2.688   2.891  3.4192 -0.2322  2.4815
 5249TIP3    H237307   6.576   2.542   2.885 -1.0761  0.8245  2.0665
 5250TIP3   OH237308   2.349   2.169   7.092 -0.3417 -0.1174  0.3379
 5250TIP3    H137309   2.265   2.183   7.136 -0.8639  0.2813 -0.7581
 5250TIP3    H237310   2.350   2.075   7.073  1.2208 -0.9610  3.7751
 5251TIP3   OH237311   0.145   5.797   0.802  0.1864 -0.3335 -0.0105
 5251TIP3    H137312   0.151   5.860   0.730  0.0558  0.0019  0.2729
 5251TIP3    H237313   0.235   5.767   0.815  0.2637 -0.1361 -0.0851
 5252TIP3   OH237314   3.540   4.665   6.871 -0.0457 -0.3198 -0.1684
 5252TIP3    H137315   3.595   4.672   6.948 -0.9499  0.1550  0.4614
 5252TIP3    H237316   3.467   4.726   6.888 -0.3491 -0.3369 -1.3118
 5253TIP3   OH237317   0.386   2.553   2.392  0.2745  0.3007 -0.3486
 5253TIP3    H137318   0.345   2.474   2.357  0.0338  0.4956 -0.5106
 5253TIP3    H237319   0.397   2.535   2.485 -2.0442  1.0017  0.1431
 5254TIP3   OH237320   6.043   1.897   0.758 -0.4290 -0.1580  0.2453
 5254TIP3    H137321   6.079   1.878   0.845 -0.5036 -0.0921  0.2911
 5254TIP3    H237322   5.984   1.972   0.772 -1.1680 -0.7356  0.3113
 5255TIP3   OH237323   0.323   6.084   8.420 -0.2781 -0.1322 -0.3015
 5255TIP3    H137324   0.246   6.050   8.374 -2.2413  1.0634  1.8636
 5255TIP3    H237325   0.301   6.073   8.513  2.2214  0.2297  0.3980
 5256TIP3   OH237326   6.278   6.843   2.053  0.2063 -0.7654 -0.5324
 5256TIP3    H137327   6.274   6.768   2.112 -0.3951 -1.1504 -1.0532
 5256TIP3    H237328   6.316   6.913   2.107 -1.5555 -0.7116  0.7419
 5257TIP3   OH237329   5.349   4.181   1.112 -0.1911  0.1586  0.3952
 5257TIP3    H137330   5.425   4.152   1.062  0.3524  3.8664 -1.2875
 5257TIP3    H237331   5.380   4.256   1.162 -2.4326  1.0365  0.5983
 5258TIP3   OH237332   1.858   1.573   1.978  0.3757  0.1696  0.2404
 5258TIP3    H137333   1.841   1.596   1.887 -0.3238  1.5778  0.6975
 5258TIP3    H237334   1.813   1.490   1.991  0.4978 -0.0470 -0.6919
 5259TIP3   OH237335   2.364   2.121   1.742  0.3650  0.6228 -0.3826
 5259TIP3    H137336   2.407   2.197   1.783 -0.8286  0.1487  1.8871
 5259TIP3    H237337   2.375   2.050   1.805 -0.5442 -0.4788 -1.4208
 5260TIP3   OH237338   4.539   1.937   1.086  0.0301 -0.2836  0.1149
 5260TIP3    H137339   4.449   1.969   1.091  0.7022  1.5838  1.6124
 5260TIP3    H237340   4.582   1.995   1.024  2.0416  4.3379  5.0448
 5261TIP3   OH237341   3.660   0.608   0.835 -0.4066  0.3863  0.4486
 5261TIP3    H137342   3.586   0.585   0.779  1.0257 -0.2933 -1.2991
 5261TIP3    H237343   3.733   0.620   0.774  1.2895 -0.5079  2.1694
 5262TIP3   OH237344   2.417   6.731   0.093  0.8166 -0.1518 -0.7803
 5262TIP3    H137345   2.467   6.649   0.089  0.9357 -0.0295 -2.3835
 5262TIP3    H237346   2.373   6.737   0.009 -2.2595 -0.4133  0.6700
 5263TIP3   OH237347   6.654   1.244   0.042  0.5447 -0.3506  0.4701
 5263TIP3    H137348   6.650   1.338   0.026  1.5757 -0.5506 -1.3845
 5263TIP3    H237349   6.564   1.218   0.058  0.1888  0.8825  0.5779
 5264TIP3   OH237350   0.291   1.878   7.134  0.0462  0.7860 -0.1794
 5264TIP3    H137351   0.250   1.873   7.220  0.6203 -0.5839  0.0195
 5264TIP3    H237352   0.331   1.965   7.132  0.1899  0.7568  0.9990
 5265TIP3   OH237353   0.426   6.277   1.810  0.3058 -0.0721 -0.3163
 5265TIP3    H137354   0.491   6.292   1.880 -0.5513  1.3456  0.2228
 5265TIP3    H237355   0.382   6.196   1.835  0.8525 -0.2411  0.1246
 5266TIP3   OH237356   3.570   0.845   7.220 -0.3833  0.0641 -0.3886
 5266TIP3    H137357   3.660   0.819   7.238 -0.7975 -1.2861 -0.1400
 5266TIP3    H237358   3.569   0.939   7.232  0.2624 -0.2555  2.8866
 5267TIP3   OH237359   0.946   6.627   1.780  0.1584 -0.3135  0.3912
 5267TIP3    H137360   0.886   6.587   1.843 -1.3642  0.0952 -0.7315
 5267TIP3    H237361   0.997   6.553   1.745 -1.4643 -1.0785 -0.4627
 5268TIP3   OH237362   2.547   0.021   7.492 -0.1149  0.2029 -0.7954
 5268TIP3    H137363   2.601   0.100   7.484 -0.3608  0.4187 -0.4063
 5268TIP3    H237364   2.585  -0.041   7.430  2.4264 -0.6912  1.4384
 5269TIP3   OH237365   0.623   5.924   8.538  0.3079 -0.6281  0.0594
 5269TIP3    H137366   0.598   5.951   8.626  1.6127 -0.4083  0.3957
 5269TIP3    H237367   0.576   5.842   8.523 -0.7998 -0.0890  0.4983
 5270TIP3   OH237368   3.304   2.843   0.964 -0.1928 -0.6152 -0.1295
 5270TIP3    H137369   3.344   2.916   0.918  0.1009 -0.0652  0.9698
 5270TIP3    H237370   3.372   2.812   1.024 -0.6214 -1.1885  0.0702
 5271TIP3   OH237371   1.860   6.176   8.541  0.0125  0.0587 -0.3777
 5271TIP3    H137372   1.796   6.233   8.584  0.6677 -1.1937  2.4708
 5271TIP3    H237373   1.855   6.201   8.448 -3.3791  1.1580 -0.0638
 5272TIP3   OH237374   1.567   1.972   0.567  0.0749  0.2729 -0.3358
 5272TIP3    H137375   1.488   1.975   0.621  0.3309  1.5609  0.0046
 5272TIP3    H237376   1.587   1.879   0.560 -0.5488  0.0092  0.9367
 5273TIP3   OH237377   4.718   2.066   0.450  0.3889  0.7703  0.1500
 5273TIP3    H137378   4.721   1.987   0.396  3.6918  1.9279 -1.6441
 5273TIP3    H237379   4.727   2.034   0.540 -0.4359 -0.9731 -0.3513
 5274TIP3   OH237380   1.726   2.697   7.683  0.6293  0.3643 -0.4975
 5274TIP3    H137381   1.789   2.681   7.753 -0.1491 -0.9039 -0.0470
 5274TIP3    H237382   1.757   2.776   7.640  2.1847  0.1019  0.0879
 5275TIP3   OH237383   4.635   1.230   2.494 -0.5454  0.3934  0.6472
 5275TIP3    H137384   4.694   1.165   2.531 -1.6977 -0.9785  0.1756
 5275TIP3    H237385   4.692   1.297   2.456  0.6656 -0.1451  1.4836
 5276TIP3   OH237386   1.741   6.430   1.668  0.2352  0.0588  0.1048
 5276TIP3    H137387   1.724   6.428   1.762 -1.7334 -1.0701 -0.2085
 5276TIP3    H237388   1.692   6.507   1.637  0.9387  0.4700 -0.0016
 5277TIP3   OH237389   1.869   5.392   8.110 -0.5015  0.1076 -0.0392
 5277TIP3    H137390   1.861   5.303   8.143 -0.1076  0.0017 -0.2334
 5277TIP3    H237391   1.881   5.383   8.016 -1.1411  0.3936 -0.1528
 5278TIP3   OH237392   5.609   3.220   7.861 -0.0394  0.2306 -0.3264
 5278TIP3    H137393   5.590   3.314   7.857 -0.7859  0.0978 -0.0659
 5278TIP3    H237394   5.544   3.180   7.803  0.1268 -0.1487 -0.2539
 5279TIP3   OH237395   6.487   5.688   2.443 -0.0674  0.2115 -0.1365
 5279TIP3    H137396   6.559   5.651   2.391 -1.0697 -0.1281 -1.3285
 5279TIP3    H237397   6.478   5.778   2.412 -1.0519 -0.1683 -1.0047
 5280TIP3   OH237398   2.331   4.140   8.040 -0.0386  0.0983  0.0905
 5280TIP3    H137399   2.244   4.166   8.008  0.1677 -0.0110 -0.5644
 5280TIP3    H237400   2.389   4.209   8.010  0.2153 -0.1891 -0.0848
 5281TIP3   OH237401   0.543   5.428   1.567  0.2034  0.0264  0.1263
 5281TIP3    H137402   0.455   5.425   1.528  0.2019  1.8016 -0.0861
 5281TIP3    H237403   0.594   5.364   1.517 -0.3261  0.7920 -1.4479
 5282TIP3   OH237404   6.599   0.893   2.284  0.2764 -0.0382  0.5580
 5282TIP3    H137405   6.598   0.987   2.300  1.1431  0.1259 -0.2713
 5282TIP3    H237406   6.616   0.854   2.370  2.9104  0.7235  0.4763
 5283TIP3   OH237407   4.467   6.094   0.422 -0.8048 -0.4902  0.1071
 5283TIP3    H137408   4.476   6.008   0.463 -0.5999 -1.8998 -2.6621
 5283TIP3    H237409   4.526   6.092   0.347 -2.3685  1.2561 -1.2746
 5284TIP3   OH237410   1.489   5.700   1.743 -0.2551  0.3344  0.4223
 5284TIP3    H137411   1.431   5.755   1.794 -2.0622 -2.0793  1.1937
 5284TIP3    H237412   1.431   5.633   1.705  1.8675 -1.6527  0.4304
 5285TIP3   OH237413   1.624   1.187   8.088 -0.0074 -0.5138  0.8666
 5285TIP3    H137414   1.550   1.244   8.111  0.5265  0.8905 -0.6942
 5285TIP3    H237415   1.682   1.192   8.164 -0.4136  0.2781  1.1447
 5286TIP3   OH237416   6.172   5.300   0.974  0.0990  0.4238 -0.7889
 5286TIP3    H137417   6.202   5.355   1.047 -3.3749  1.8233 -0.1866
 5286TIP3    H237418   6.154   5.362   0.903 -0.2351 -0.4513 -1.4868
 5287TIP3   OH237419   3.570   1.406   7.709 -0.3111  0.1557 -0.2702
 5287TIP3    H137420   3.580   1.413   7.804  1.0160  1.1123 -0.4680
 5287TIP3    H237421   3.616   1.325   7.686 -0.3945  0.0688 -0.1287
 5288TIP3   OH237422   6.025   0.640   0.814  0.1611 -0.2692  1.2940
 5288TIP3    H137423   5.971   0.567   0.846 -1.5608  0.0009 -0.7959
 5288TIP3    H237424   6.024   0.631   0.719 -1.5874  3.4156  0.8031
 5289TIP3   OH237425   4.412   5.745   8.229  0.2831 -0.3701  0.4638
 5289TIP3    H137426   4.489   5.689   8.216  0.2815 -0.3083  0.1917
 5289TIP3    H237427   4.425   5.818   8.168 -0.3533 -0.7295 -0.1050
 5290TIP3   OH237428   3.742   2.587   0.590  0.1839  0.4713  0.5824
 5290TIP3    H137429   3.763   2.524   0.521 -0.0640  0.5714  0.4166
 5290TIP3    H237430   3.648   2.577   0.603 -0.3321  2.5016 -1.1182
 5291TIP3   OH237431   0.357   3.230   7.860  0.5673  0.3395  0.1918
 5291TIP3    H137432   0.373   3.259   7.770 -0.6028  1.2405  0.2431
 5291TIP3    H237433   0.265   3.252   7.876  0.7071  0.0254  1.5468
 5292TIP3   OH237434   3.478   4.316   0.914 -0.4633 -0.0588 -0.5304
 5292TIP3    H137435   3.430   4.398   0.898 -2.0001 -0.5515  1.1748
 5292TIP3    H237436   3.485   4.311   1.009  0.3116 -1.5286 -0.6399
 5293TIP3   OH237437   6.274   3.328   7.961 -0.2864 -0.3413  0.0451
 5293TIP3    H137438   6.230   3.256   7.917  0.1566 -1.5104  1.4173
 5293TIP3    H237439   6.211   3.359   8.026 -0.4070  0.3957 -0.4146
 5294TIP3   OH237440   6.187   3.597   0.152  0.4524  0.1893 -0.9951
 5294TIP3    H137441   6.156   3.663   0.214  0.7809 -0.7543  0.2094
 5294TIP3    H237442   6.207   3.646   0.073 -0.0612  1.4182 -0.3877
 5295TIP3   OH237443   2.696   4.739   2.377  0.2627 -0.6424 -0.0901
 5295TIP3    H137444   2.750   4.781   2.310 -0.9421 -0.4790 -0.9954
 5295TIP3    H237445   2.757   4.685   2.428  1.3694  0.0573 -0.6546
 5296TIP3   OH237446   4.789   0.815   7.661 -0.7941 -0.0032  0.4401
 5296TIP3    H137447   4.762   0.740   7.608 -2.0674 -0.6006  1.8720
 5296TIP3    H237448   4.735   0.888   7.629  0.2556  0.2803 -0.7700
 5297TIP3   OH237449   5.623   2.691   0.527 -0.1677  0.1053  0.3620
 5297TIP3    H137450   5.702   2.642   0.504 -0.8408 -1.3649  1.0663
 5297TIP3    H237451   5.647   2.739   0.606  0.5189  1.0212 -0.3732
 5298TIP3   OH237452   0.063   4.541   1.946 -0.0527 -0.7712  0.1850
 5298TIP3    H137453   0.142   4.489   1.961 -0.7047 -1.5656  1.0195
 5298TIP3    H237454  -0.001   4.505   2.007 -0.7360  0.5878  0.3157
 5299TIP3   OH237455   5.572   1.540   1.249  0.3016 -0.1325 -0.2199
 5299TIP3    H137456   5.656   1.549   1.203  0.3638  2.5617  0.2834
 5299TIP3    H237457   5.596   1.533   1.341 -0.0057 -0.6762 -0.1776
 5300TIP3   OH237458   3.715   4.260   2.855  0.1778  0.7293  0.4010
 5300TIP3    H137459   3.633   4.295   2.891 -0.0660 -0.4029  0.9882
 5300TIP3    H237460   3.779   4.330   2.867 -0.3114  0.9955  1.5075
 5301TIP3   OH237461   3.905   2.787   2.829  0.2620 -0.1088 -0.6737
 5301TIP3    H137462   3.875   2.697   2.817  1.4456 -0.7998  1.1557
 5301TIP3    H237463   3.826   2.840   2.826 -0.6204 -1.3701 -0.3432
 5302TIP3   OH237464   0.290   5.232   1.801 -0.1457  0.3310 -0.3137
 5302TIP3    H137465   0.265   5.174   1.873 -1.2991  0.2051 -0.8004
 5302TIP3    H237466   0.343   5.178   1.743  0.8412  0.4465  0.4481
 5303TIP3   OH237467   3.116   0.483   8.186  0.1736  0.1355 -0.4200
 5303TIP3    H137468   3.118   0.549   8.256 -1.6011 -0.1324 -0.0496
 5303TIP3    H237469   3.109   0.534   8.106 -1.1697  0.4550 -0.1357
 5304TIP3   OH237470   1.336   4.936   0.917 -0.4263 -0.4141  0.1521
 5304TIP3    H137471   1.322   4.944   0.822 -1.9268 -0.4001  0.3645
 5304TIP3    H237472   1.413   4.879   0.924 -1.5975 -2.2398 -1.0604
 5305TIP3   OH237473   1.623   2.920   1.510  0.4683 -0.0050  0.0483
 5305TIP3    H137474   1.602   2.838   1.554  1.0372 -0.7445 -1.0268
 5305TIP3    H237475   1.590   2.909   1.421  1.2479  0.6190 -0.3287
 5306TIP3   OH237476   6.028   4.971   1.817 -0.2056  0.5066  0.3985
 5306TIP3    H137477   6.016   4.912   1.742  0.3567  1.4067 -0.4316
 5306TIP3    H237478   6.065   5.051   1.778  0.1634  0.9637  1.6553
 5307TIP3   OH237479   3.945   0.851   3.120 -0.0678  0.4029 -0.1837
 5307TIP3    H137480   3.999   0.772   3.110  0.1550  0.3294  1.4141
 5307TIP3    H237481   3.907   0.844   3.208  0.2268  2.2440  0.1293
 5308TIP3   OH237482   2.681   4.518   1.877  0.0880  0.3672  0.2105
 5308TIP3    H137483   2.717   4.517   1.966 -1.5950 -1.0958  0.9469
 5308TIP3    H237484   2.655   4.427   1.861 -1.8100  1.0385 -0.8366
 5309TIP3   OH237485   3.766   3.510   7.953  0.0099 -0.0326 -0.1554
 5309TIP3    H137486   3.693   3.487   7.896 -0.8006  0.2621  0.7504
 5309TIP3    H237487   3.839   3.455   7.922 -0.8165 -0.9394 -0.5278
 5310TIP3   OH237488   1.571   3.196   0.571 -0.3368 -0.3273  0.4689
 5310TIP3    H137489   1.559   3.259   0.642 -0.0066  0.9467 -0.5689
 5310TIP3    H237490   1.638   3.235   0.515 -0.7662 -1.1794 -0.6846
 5311TIP3   OH237491   4.814   2.282   7.435 -0.3979  0.6746 -0.1396
 5311TIP3    H137492   4.821   2.374   7.460 -0.5843  0.7055 -0.1972
 5311TIP3    H237493   4.784   2.284   7.345  0.7140  0.5654 -0.5294
 5312TIP3   OH237494   1.607   4.317   2.231  0.4987 -0.2851  0.1701
 5312TIP3    H137495   1.540   4.315   2.163 -0.8630  2.4388  1.2531
 5312TIP3    H237496   1.669   4.249   2.206 -1.0037 -0.7860 -2.6247
 5313TIP3   OH237497   1.641   4.762   0.420  0.2276 -0.0501 -0.4049
 5313TIP3    H137498   1.672   4.695   0.359  0.4544  2.1097 -2.8217
 5313TIP3    H237499   1.707   4.765   0.489  1.0440 -1.1700 -1.1126
 5314TIP3   OH237500   5.914   4.517   1.766 -0.5475 -1.1343  0.5671
 5314TIP3    H137501   5.893   4.589   1.825 -2.4861 -1.4362  0.2927
 5314TIP3    H237502   5.898   4.552   1.678 -1.2639 -1.8012  0.4221
 5315TIP3   OH237503   3.311   4.442   2.303  0.3168  0.2858  0.1275
 5315TIP3    H137504   3.359   4.359   2.312  0.1672  0.3586  2.3354
 5315TIP3    H237505   3.353   4.500   2.367 -0.8453  1.2798  0.0250
 5316TIP3   OH237506   2.701   3.432   8.142  0.0032  0.2397  0.7671
 5316TIP3    H137507   2.696   3.428   8.238 -2.9414  1.4024  0.7659
 5316TIP3    H237508   2.757   3.508   8.125  0.9099 -0.2326  1.5410
 5317TIP3   OH237509   1.994   3.097   2.577  0.6277  0.8683 -0.0352
 5317TIP3    H137510   1.957   3.156   2.643 -1.3337  1.1378 -1.2936
 5317TIP3    H237511   2.007   3.014   2.624 -0.7812  1.0284  0.6846
 5318TIP3   OH237512   3.152   1.266   8.299  0.1131  0.1672 -0.0708
 5318TIP3    H137513   3.081   1.266   8.235 -0.3826  2.3608  0.3901
 5318TIP3    H237514   3.208   1.193   8.273 -1.7149 -0.9285 -1.1041
 5319TIP3   OH237515   5.588   3.033   8.116 -0.3496  0.2060  0.2795
 5319TIP3    H137516   5.651   2.988   8.061 -0.3404  0.8920 -0.2889
 5319TIP3    H237517   5.502   3.009   8.080 -0.3500  0.5342  0.0635
 5320TIP3   OH237518   1.684   5.381   0.443  0.0359  0.3523  0.1213
 5320TIP3    H137519   1.702   5.439   0.517 -3.8422 -0.5233  1.9930
 5320TIP3    H237520   1.753   5.316   0.446  0.7954  1.1740  2.0782
 5321TIP3   OH237521   5.152   1.108   2.696 -0.4987 -0.1296  0.5959
 5321TIP3    H137522   5.183   1.026   2.734  2.0542 -0.4634 -1.8574
 5321TIP3    H237523   5.060   1.114   2.722 -0.7268 -3.6415  1.0377
 5322TIP3   OH237524   3.274   1.796   3.398  0.1835 -0.4787 -0.4335
 5322TIP3    H137525   3.194   1.743   3.398  0.2748 -0.6386 -1.4605
 5322TIP3    H237526   3.251   1.874   3.347  0.7928 -0.7143 -1.0868
 5323TIP3   OH237527   2.822   4.888   8.582  0.0155  0.1584 -0.4187
 5323TIP3    H137528   2.829   4.970   8.632 -1.1906  0.8169 -1.2890
 5323TIP3    H237529   2.757   4.837   8.630  1.2516 -0.6207  0.5076
 5324TIP3   OH237530   6.516   5.948   1.173  0.3165  0.7568 -0.0621
 5324TIP3    H137531   6.430   5.971   1.208 -0.0913 -0.6714 -0.0615
 5324TIP3    H237532   6.530   5.858   1.201  1.7352  0.8947 -0.2349
 5325TIP3   OH237533   2.110   6.218   0.028 -0.4375 -0.3180  0.1518
 5325TIP3    H137534   2.015   6.214   0.018 -0.3708 -0.3852 -0.4598
 5325TIP3    H237535   2.127   6.304   0.066 -0.8140 -0.6610  1.1405
 5326TIP3   OH237536   2.485   5.918   0.019  0.8730  0.3279  0.4847
 5326TIP3    H137537   2.416   5.857   0.044  1.9375  0.2549  3.6838
 5326TIP3    H237538   2.439   6.000   0.002 -0.1587 -0.2088  0.6060
 5327TIP3   OH237539   3.373   2.973   3.185  0.1887  0.5268  0.0270
 5327TIP3    H137540   3.410   3.039   3.126 -0.1877 -0.3700 -1.2458
 5327TIP3    H237541   3.363   2.895   3.131 -0.2606 -0.3051  1.2664
 5328TIP3   OH237542   2.373   0.831   1.635 -0.0019 -0.2639 -0.4147
 5328TIP3    H137543   2.304   0.826   1.570 -0.3930  0.3159 -0.0477
 5328TIP3    H237544   2.373   0.921   1.665 -0.4201 -0.7151  1.0194
 5329TIP3   OH237545   5.921   0.121   6.684  0.4059 -0.3463 -0.5370
 5329TIP3    H137546   5.844   0.096   6.632 -1.1935  0.5484  1.2663
 5329TIP3    H237547   5.949   0.205   6.647 -0.6789  0.2549 -0.0418
 5330TIP3   OH237548   0.620   3.541   8.259  0.0514 -0.2836 -0.6490
 5330TIP3    H137549   0.619   3.620   8.204 -0.9711  0.0940 -0.1289
 5330TIP3    H237550   0.670   3.566   8.336  0.3593 -0.3830 -0.8170
 5331TIP3   OH237551   3.420   5.621   8.284 -0.7337 -0.3463  0.1129
 5331TIP3    H137552   3.451   5.631   8.194 -3.3764 -0.8644 -0.9325
 5331TIP3    H237553   3.443   5.704   8.326 -0.6301  0.4356 -1.4185
 5332TIP3   OH237554   0.771   0.031   1.124  0.2436  0.1350  0.8271
 5332TIP3    H137555   0.864   0.051   1.118  0.4959 -0.9930  0.7988
 5332TIP3    H237556   0.754   0.022   1.218  0.1470  0.4041  0.8359
 5333TIP3   OH237557   5.260   2.993   0.012  0.4995  0.0426  0.1427
 5333TIP3    H137558   5.258   3.003   0.108 -2.3041  3.0088 -0.0210
 5333TIP3    H237559   5.327   3.054  -0.017  0.3258  0.2608  0.1914
 5334TIP3   OH237560   5.555   2.741   1.753  0.2411 -0.3517 -0.0316
 5334TIP3    H137561   5.464   2.721   1.775  0.0155 -0.3130 -0.9236
 5334TIP3    H237562   5.582   2.670   1.694  0.7679 -0.3229  0.1674
 5335TIP3   OH237563   1.893   0.298   2.640 -0.3355  0.1449  0.0938
 5335TIP3    H137564   1.921   0.209   2.619  1.0254  0.3437  0.9590
 5335TIP3    H237565   1.860   0.332   2.557  0.0954 -0.8115 -0.4936
 5336TIP3   OH237566   5.502   2.083   8.023  0.0111  0.1197  0.5400
 5336TIP3    H137567   5.412   2.055   8.009  0.1007  0.7827 -1.8513
 5336TIP3    H237568   5.526   2.048   8.109 -1.9791 -1.4337  0.5148
 5337TIP3   OH237569   0.256   6.859   1.338 -0.1893  0.1339 -0.1083
 5337TIP3    H137570   0.194   6.897   1.400  0.7919  1.1964  0.2749
 5337TIP3    H237571   0.233   6.766   1.334 -0.2153 -0.0061  1.9709
 5338TIP3   OH237572   2.995   0.008   0.061  0.2671  0.1910  0.3983
 5338TIP3    H137573   2.975   0.047  -0.025  1.9437  0.3294  0.0328
 5338TIP3    H237574   3.027  -0.080   0.040  1.2878  0.4516  0.8103
 5339TIP3   OH237575   0.205   0.554   7.054 -0.1363 -0.8582  0.3651
 5339TIP3    H137576   0.269   0.497   7.011  0.6827 -0.2931  0.8148
 5339TIP3    H237577   0.126   0.546   7.000  0.8984 -0.0703 -1.3542
 5340TIP3   OH237578   2.112   4.310   8.008 -0.0344  0.0592 -0.0466
 5340TIP3    H137579   2.100   4.348   8.095  0.1178 -0.1661  0.0747
 5340TIP3    H237580   2.132   4.384   7.952 -1.5740  0.4086 -0.1856
 5341TIP3   OH237581   5.083   0.984   7.370 -0.4904  0.5647 -0.4345
 5341TIP3    H137582   5.149   1.046   7.339  0.5767 -0.3040  0.0089
 5341TIP3    H237583   5.001   1.014   7.332  0.1778  1.6222 -1.0821
 5342TIP3   OH237584   4.164   6.698   7.201 -0.8877  0.1177 -0.4728
 5342TIP3    H137585   4.216   6.663   7.273 -2.3867  1.4781  1.3984
 5342TIP3    H237586   4.222   6.760   7.157 -0.6380  1.0313  1.0834
 5343TIP3   OH237587   5.209   4.648   6.810 -0.1594  0.4927 -0.2942
 5343TIP3    H137588   5.191   4.560   6.843 -0.1388  0.2802 -0.8561
 5343TIP3    H237589   5.124   4.693   6.813  0.2103  1.1820  2.1239
 5344TIP3   OH237590   2.921   1.437   2.950 -0.0456 -0.2426 -0.2291
 5344TIP3    H137591   2.830   1.456   2.973  1.0213  1.4588  3.2686
 5344TIP3    H237592   2.925   1.341   2.945 -1.9044 -0.3687  0.0513
 5345TIP3   OH237593   4.792   4.496   0.339 -0.2214 -0.1754 -0.3053
 5345TIP3    H137594   4.813   4.449   0.420  0.9512  0.5402 -0.1610
 5345TIP3    H237595   4.699   4.479   0.325 -0.4210 -0.4222  1.1257
 5346TIP3   OH237596   4.902   5.063   0.017 -0.0893  0.1332 -0.4704
 5346TIP3    H137597   4.899   5.150  -0.023 -1.1279 -0.0114 -0.7488
 5346TIP3    H237598   4.875   5.078   0.108  0.4862  0.2084 -0.3122
 5347TIP3   OH237599   6.039   2.930   1.997 -0.1701 -0.2163  0.9905
 5347TIP3    H137600   6.039   3.025   2.006 -0.6117 -0.0468 -0.5041
 5347TIP3    H237601   6.018   2.897   2.084 -2.2225  1.1184  1.0582
 5348TIP3   OH237602   5.160   0.813   8.446 -0.2733 -0.8354 -0.5608
 5348TIP3    H137603   5.169   0.718   8.433 -1.3554 -1.2906  1.5728
 5348TIP3    H237604   5.108   0.842   8.371 -2.8899 -2.5848  0.4218
 5349TIP3   OH237605   5.461   6.215   1.297 -0.2158  0.4061 -0.1376
 5349TIP3    H137606   5.422   6.290   1.250  1.2642 -0.3507 -2.7843
 5349TIP3    H237607   5.393   6.147   1.293 -0.6604  0.8220  0.1552
 5350TIP3   OH237608   4.425   3.331   2.189 -0.0780 -0.3162  0.3125
 5350TIP3    H137609   4.405   3.423   2.210 -0.0557 -0.4955  1.1791
 5350TIP3    H237610   4.343   3.295   2.157 -0.3894 -0.2753  1.0385
 5351TIP3   OH237611   2.080   3.336   2.463  0.6202 -0.5820 -0.3697
 5351TIP3    H137612   2.071   3.242   2.450  1.3935 -0.5923 -0.8626
 5351TIP3    H237613   2.017   3.357   2.532 -0.6297 -1.2031 -1.2897
 5352TIP3   OH237614   0.105   4.652   8.164 -0.1961  0.4248  0.4595
 5352TIP3    H137615   0.073   4.617   8.247 -1.0345  1.0884  0.4308
 5352TIP3    H237616   0.053   4.731   8.149  1.6015  1.6705  0.4901
 5353TIP3   OH237617   2.198   3.462   1.939 -0.3133 -0.6463 -0.6254
 5353TIP3    H137618   2.138   3.500   1.874  1.2701  1.3809 -1.0167
 5353TIP3    H237619   2.284   3.493   1.912  0.6359 -1.4401  1.3238
 5354TIP3   OH237620   2.733   0.787   8.244  0.3316 -0.2297  0.1588
 5354TIP3    H137621   2.734   0.828   8.157  0.0315 -0.7462 -0.0932
 5354TIP3    H237622   2.704   0.857   8.302  1.5918  0.4372  0.0243
 5355TIP3   OH237623   5.355   2.153   8.333 -0.2722  0.2367 -0.5892
 5355TIP3    H137624   5.408   2.099   8.274  0.5893  1.3381 -0.8619
 5355TIP3    H237625   5.326   2.093   8.401  2.1948 -0.2670  0.1423
 5356TIP3   OH237626   1.777   2.908   7.526 -0.2572 -0.3290  0.9523
 5356TIP3    H137627   1.784   2.986   7.580 -0.0799  0.3272  0.0154
 5356TIP3    H237628   1.752   2.941   7.440  0.4825 -1.2318  0.3674
 5357TIP3   OH237629   4.344   4.776   0.810  0.0129  0.4304 -0.2955
 5357TIP3    H137630   4.366   4.697   0.858  0.8337  1.3269  0.8486
 5357TIP3    H237631   4.302   4.833   0.875  1.0507  1.6211 -0.6216
 5358TIP3   OH237632   1.313   2.745   0.834  0.3377 -0.1672 -0.0868
 5358TIP3    H137633   1.373   2.690   0.884 -0.3475 -2.1877 -1.3595
 5358TIP3    H237634   1.302   2.699   0.751 -0.6858  1.6774 -1.0446
 5359TIP3   OH237635   3.481   5.774   7.371  0.1241 -0.1630  0.4386
 5359TIP3    H137636   3.461   5.682   7.357 -0.1719 -0.1895  1.0114
 5359TIP3    H237637   3.535   5.799   7.296 -0.8163 -0.4822 -0.3568
 5360TIP3   OH237638   3.884   3.021   2.464 -0.7583 -1.0632 -0.0375
 5360TIP3    H137639   3.941   2.944   2.458  0.3832 -0.2309 -0.2911
 5360TIP3    H237640   3.811   2.993   2.519 -1.5756 -3.0390 -1.9606
 5361TIP3   OH237641   3.458   0.764   2.715  0.5883  0.2451  0.4771
 5361TIP3    H137642   3.461   0.842   2.660 -1.6945 -0.0500 -0.1875
 5361TIP3    H237643   3.527   0.777   2.780  1.4005  1.9829 -0.6590
 5362TIP3   OH237644   4.785   3.785   8.286  0.0212  0.0739  0.3684
 5362TIP3    H137645   4.865   3.823   8.249  0.5267  0.0986  1.4571
 5362TIP3    H237646   4.811   3.697   8.313 -0.0501  0.4243  1.6283
 5363TIP3   OH237647   0.589   3.065   0.609 -0.5534  0.3963 -0.0347
 5363TIP3    H137648   0.628   2.981   0.633  1.2905  1.5356  1.2736
 5363TIP3    H237649   0.496   3.047   0.597 -0.0040 -2.0663 -1.1620
 5364TIP3   OH237650   1.358   0.437   0.470 -0.0252  0.2438  0.3473
 5364TIP3    H137651   1.274   0.472   0.501 -0.4292 -0.3568 -0.0487
 5364TIP3    H237652   1.346   0.425   0.376  0.3099 -0.3664  0.3747
 5365TIP3   OH237653   2.366   5.502   6.764 -0.1054 -0.6029  0.1755
 5365TIP3    H137654   2.355   5.409   6.782 -1.1505 -0.1709  1.9666
 5365TIP3    H237655   2.314   5.546   6.830  1.7379  1.3133  0.4625
 5366TIP3   OH237656   0.028   2.935   0.990  0.2722  0.5696  0.2371
 5366TIP3    H137657   0.099   2.956   1.050  1.4741  0.8327 -1.2231
 5366TIP3    H237658   0.070   2.924   0.905 -0.9044 -2.8648 -0.0706
 5367TIP3   OH237659   3.249   6.107   0.517 -0.3119 -0.0028  0.6230
 5367TIP3    H137660   3.295   6.190   0.503 -0.5058  0.1199  0.7108
 5367TIP3    H237661   3.194   6.096   0.439  0.2960 -0.4353  0.2495
 5368TIP3   OH237662   0.705   3.828   6.939 -0.0325 -0.0167 -0.2617
 5368TIP3    H137663   0.765   3.863   6.873 -0.8475  1.9906  0.0022
 5368TIP3    H237664   0.618   3.836   6.899 -0.4527  0.4777  0.7261
 5369TIP3   OH237665   5.294   6.227   2.145 -0.6510  0.6776 -0.1553
 5369TIP3    H137666   5.293   6.138   2.110 -1.4224  0.1763  1.0449
 5369TIP3    H237667   5.304   6.283   2.069  1.1553 -0.4699 -0.8291
 5370TIP3   OH237668   1.233   4.332   7.894 -0.6492 -0.1247 -0.2168
 5370TIP3    H137669   1.297   4.271   7.859 -0.0578  0.4733 -0.1941
 5370TIP3    H237670   1.273   4.419   7.882 -0.7775  0.1464  1.1986
 5371TIP3   OH237671   4.189   4.832   7.443 -0.5333  0.8091 -0.0978
 5371TIP3    H137672   4.205   4.916   7.402 -2.1636  1.0997 -0.2281
 5371TIP3    H237673   4.156   4.853   7.531  1.8888  0.2162  1.0612
 5372TIP3   OH237674   2.010   2.860   2.912  0.3802 -0.7650  0.1030
 5372TIP3    H137675   2.045   2.935   2.865  3.0341 -2.0312 -0.0974
 5372TIP3    H237676   1.937   2.830   2.857 -0.1622  1.0754 -0.2511
 5373TIP3   OH237677   3.039   5.087   2.209 -0.1367  0.5628 -0.2267
 5373TIP3    H137678   3.055   5.128   2.124  2.2361  0.9040  0.3063
 5373TIP3    H237679   3.008   5.158   2.264  0.8136  0.9577 -0.1710
 5374TIP3   OH237680   3.236   3.931   2.727  0.0094  0.2822  0.3969
 5374TIP3    H137681   3.267   4.006   2.677 -3.8817  1.5043 -0.5255
 5374TIP3    H237682   3.214   3.967   2.813 -0.7072 -0.0685  0.3684
 5375TIP3   OH237683   6.755   2.058   7.986  0.2075 -0.1205 -0.3068
 5375TIP3    H137684   6.713   2.025   7.907  0.7339 -0.9851 -0.2416
 5375TIP3    H237685   6.848   2.063   7.963  0.4732 -1.0915  0.4599
 5376TIP3   OH237686   3.843   5.125   8.322  0.2965  0.6076 -0.2728
 5376TIP3    H137687   3.812   5.048   8.275 -1.5605  0.2934  1.3062
 5376TIP3    H237688   3.923   5.151   8.276 -1.1086  0.0958 -3.2728
 5377TIP3   OH237689   3.447   6.324   7.329 -0.2601  0.5731  0.3156
 5377TIP3    H137690   3.361   6.364   7.314  0.7678  2.6068 -0.5201
 5377TIP3    H237691   3.500   6.355   7.256  1.2002 -0.6322  0.8348
 5378TIP3   OH237692   2.554   0.231   0.208  0.2477  0.1632  0.3251
 5378TIP3    H137693   2.554   0.162   0.141 -0.4549  1.9517 -1.6357
 5378TIP3    H237694   2.647   0.244   0.229  0.4802 -0.4464 -0.2948
 5379TIP3   OH237695   6.041   6.105   7.535 -0.0331  0.0183  0.0566
 5379TIP3    H137696   6.109   6.163   7.502 -0.9302  1.1997  0.2304
 5379TIP3    H237697   6.083   6.055   7.604  0.6733  0.6913  0.1170
 5380TIP3   OH237698   3.464   1.115   0.695  0.5703  1.2359 -0.5714
 5380TIP3    H137699   3.514   1.037   0.720 -0.6218  0.8384  0.6786
 5380TIP3    H237700   3.531   1.179   0.672  1.6875  0.6850  0.9340
 5381TIP3   OH237701   6.394   2.779   0.463  0.6922 -0.5414 -0.0610
 5381TIP3    H137702   6.452   2.765   0.389 -0.4953 -0.5414 -1.0263
 5381TIP3    H237703   6.355   2.865   0.449  1.2152 -0.0887  1.1186
 5382TIP3   OH237704   0.424   5.988   2.374 -0.1661  0.0809  0.1234
 5382TIP3    H137705   0.506   6.037   2.364 -0.0947  0.0244  0.4167
 5382TIP3    H237706   0.390   5.980   2.285 -0.9809  2.0286  0.2085
 5383TIP3   OH237707   2.147   3.602   0.264 -0.1350 -0.3710  0.1947
 5383TIP3    H137708   2.210   3.540   0.226 -0.3698 -0.0341 -0.7652
 5383TIP3    H237709   2.202   3.667   0.309  0.3086  0.6303 -1.6938
 5384TIP3   OH237710   4.358   4.171   8.258 -0.1733  0.1969  0.2396
 5384TIP3    H137711   4.431   4.153   8.317  0.6101  1.4560 -0.3138
 5384TIP3    H237712   4.377   4.118   8.180 -0.5651 -0.5141  0.6209
 5385TIP3   OH237713   4.357   3.240   1.474  0.0146  0.1641 -0.5744
 5385TIP3    H137714   4.383   3.172   1.412  1.3669  0.0096  0.1317
 5385TIP3    H237715   4.281   3.282   1.434  1.3537  0.6355 -2.7590
 5386TIP3   OH237716   6.380   0.990   1.477  0.3317  0.5017  0.0299
 5386TIP3    H137717   6.449   1.055   1.460  1.3144 -0.4327  0.3697
 5386TIP3    H237718   6.344   1.016   1.562 -0.8574  1.9309 -0.8550
 5387TIP3   OH237719   4.792   2.894   0.048  0.3746 -0.9301  0.6301
 5387TIP3    H137720   4.833   2.978   0.066  1.0392 -1.3257  1.0296
 5387TIP3    H237721   4.843   2.856  -0.023 -0.0128 -0.9315  0.3519
 5388TIP3   OH237722   4.097   2.526   7.458 -0.0442  0.1088  0.1973
 5388TIP3    H137723   4.072   2.502   7.547 -2.2501  2.3493  0.2975
 5388TIP3    H237724   4.034   2.481   7.402 -0.7461  1.2343  0.0416
 5389TIP3   OH237725   1.104   5.051   2.660  0.0911  0.0718  0.4795
 5389TIP3    H137726   1.146   5.061   2.746 -0.5204 -0.4828  0.8579
 5389TIP3    H237727   1.096   5.140   2.626 -1.2423  0.4941  1.7786
 5390TIP3   OH237728   0.073   6.293   7.140 -0.5464  0.2423 -0.2882
 5390TIP3    H137729   0.014   6.299   7.065 -1.3754  2.3163  0.4604
 5390TIP3    H237730   0.125   6.373   7.137  1.4105 -0.9626 -0.2187
 5391TIP3   OH237731   6.550   1.230   1.472  0.4370 -0.0440 -0.0426
 5391TIP3    H137732   6.569   1.244   1.379  0.8587  0.1870  0.0744
 5391TIP3    H237733   6.636   1.229   1.514  0.1908  1.2442  0.5368
 5392TIP3   OH237734   6.815   1.120   2.566  0.0362 -0.2949 -0.4152
 5392TIP3    H137735   6.781   1.136   2.654 -0.2746 -0.1048 -0.5663
 5392TIP3    H237736   6.739   1.133   2.509  0.2136 -0.5079 -0.7027
 5393TIP3   OH237737   4.648   4.547   0.635  0.3781 -0.2598 -0.7017
 5393TIP3    H137738   4.668   4.456   0.615  2.0287 -0.1874  0.3958
 5393TIP3    H237739   4.670   4.556   0.728  1.3377  1.5197 -1.0530
 5394TIP3   OH237740   5.628   4.156   7.612  0.8334 -0.2260  0.0314
 5394TIP3    H137741   5.599   4.079   7.562  1.5910  0.5144 -1.6146
 5394TIP3    H237742   5.587   4.145   7.698 -2.4151 -0.4111 -1.3882
 5395TIP3   OH237743   4.660   5.265   0.624  0.0646  0.3239 -0.0247
 5395TIP3    H137744   4.656   5.185   0.676 -0.4860  0.8088  0.6973
 5395TIP3    H237745   4.592   5.255   0.558 -0.0711  0.2322  0.1279
 5396TIP3   OH237746   0.502   0.705   1.287  0.1338 -0.3938 -0.2275
 5396TIP3    H137747   0.525   0.647   1.360 -0.1387 -0.6880 -0.3723
 5396TIP3    H237748   0.559   0.781   1.298 -1.2927  0.4915  1.4668
 5397TIP3   OH237749   2.896   1.639   2.541 -0.6457 -0.1411  0.0417
 5397TIP3    H137750   2.989   1.643   2.566 -0.0344 -2.1843 -1.6239
 5397TIP3    H237751   2.861   1.564   2.588 -0.4812 -1.5898 -2.0542
 5398TIP3   OH237752   0.338   0.443   2.643  0.0408  0.3970 -0.6024
 5398TIP3    H137753   0.354   0.465   2.735  1.5764 -0.7688 -0.5612
 5398TIP3    H237754   0.390   0.507   2.594  0.9179 -0.2985 -0.5938
 5399TIP3   OH237755   6.891   0.056   0.269 -0.4296  0.5990 -0.0862
 5399TIP3    H137756   6.837  -0.005   0.319 -0.7460  0.1549 -0.9534
 5399TIP3    H237757   6.906   0.129   0.330  2.3128 -1.4984  2.0150
 5400TIP3   OH237758   0.324   4.565   0.377  0.1518  0.0305  0.3531
 5400TIP3    H137759   0.297   4.644   0.423 -0.1549 -0.7840  1.6197
 5400TIP3    H237760   0.419   4.560   0.392 -0.0933 -0.7837  1.8557
 5401TIP3   OH237761   5.526   0.738   6.975 -0.2037  0.1628 -0.6027
 5401TIP3    H137762   5.620   0.736   6.959 -0.4449  0.5045 -2.2662
 5401TIP3    H237763   5.486   0.728   6.888 -1.6850  1.2899 -0.1060
 5402TIP3   OH237764   0.625   0.924   1.406 -0.1048  0.0709 -0.0471
 5402TIP3    H137765   0.607   0.884   1.491  0.7641 -1.1570 -0.4093
 5402TIP3    H237766   0.648   1.015   1.426 -1.3158  0.1929  0.8822
 5403TIP3   OH237767   0.069   0.093   2.044  0.0798  0.7709 -0.3707
 5403TIP3    H137768   0.159   0.091   2.010 -0.1986  1.2932 -1.1484
 5403TIP3    H237769   0.058   0.183   2.075  0.0582  0.5157  0.3987
 5404TIP3   OH237770   1.419   1.304   6.912 -0.4549  0.0940  0.1772
 5404TIP3    H137771   1.481   1.259   6.854  1.0403  1.6049  0.5168
 5404TIP3    H237772   1.423   1.395   6.885 -2.7476  0.2205  0.0928
 5405TIP3   OH237773   5.611   6.016   7.874 -0.9286  0.1325  0.1943
 5405TIP3    H137774   5.530   6.025   7.924 -0.6570  0.5946  0.5540
 5405TIP3    H237775   5.613   5.923   7.848 -2.4224  0.4645 -1.2766
 5406TIP3   OH237776   3.486   2.584   0.694 -0.4645 -0.6259  0.2378
 5406TIP3    H137777   3.469   2.670   0.654  0.3060 -0.7642 -0.3885
 5406TIP3    H237778   3.399   2.553   0.721 -1.1843 -1.0129 -2.3043
 5407TIP3   OH237779   4.489   6.848   0.539  0.5037  0.0418  0.1576
 5407TIP3    H137780   4.399   6.873   0.561 -0.3892 -0.6755 -2.3107
 5407TIP3    H237781   4.530   6.930   0.511  0.0530  0.0876 -0.3885
 5408TIP3   OH237782   3.486   3.167   3.046  0.2958  0.5991 -0.4746
 5408TIP3    H137783   3.503   3.260   3.031 -0.7643  1.5697  3.2699
 5408TIP3    H237784   3.567   3.123   3.020  0.8802  2.5273 -2.1634
 5409TIP3   OH237785   2.886   1.003   2.737 -0.5221 -0.3569 -0.3857
 5409TIP3    H137786   2.854   1.012   2.827  1.7010  0.6920  0.3843
 5409TIP3    H237787   2.851   0.919   2.708 -2.3331 -0.1330  0.9912
 5410TIP3   OH237788   0.442   5.664   2.339  0.7891  0.2895  0.1066
 5410TIP3    H137789   0.371   5.709   2.385 -0.1167  0.3916 -1.3411
 5410TIP3    H237790   0.422   5.571   2.350 -0.8469  0.3069 -2.1046
 5411TIP3   OH237791   3.180   6.547   6.654 -0.0221 -0.2063 -0.1432
 5411TIP3    H137792   3.259   6.540   6.600 -1.0337 -2.7409 -1.4729
 5411TIP3    H237793   3.147   6.635   6.636  1.2474  0.0492 -1.4078
 5412TIP3   OH237794   4.582   0.016   1.068 -0.2272  0.0880  0.4374
 5412TIP3    H137795   4.566   0.083   1.002  1.2254 -0.8969 -0.9785
 5412TIP3    H237796   4.509   0.025   1.129  0.0084  3.0915  0.4446
 5413TIP3   OH237797   5.082   5.199   7.709 -0.2488 -0.0452  0.3551
 5413TIP3    H137798   5.003   5.244   7.679  0.0703 -0.1549 -0.6896
 5413TIP3    H237799   5.141   5.201   7.634  0.8224  0.1908  1.1763
 5414TIP3   OH237800   6.246   0.157   0.048  0.0508 -0.0740 -1.0932
 5414TIP3    H137801   6.255   0.247   0.017 -0.5771 -0.0185 -1.1079
 5414TIP3    H237802   6.274   0.161   0.139 -2.4611  0.6766 -0.2776
 5415TIP3   OH237803   0.497   4.919   7.901 -0.0018 -0.1116 -0.3824
 5415TIP3    H137804   0.419   4.866   7.916 -1.2351  1.9591  1.0536
 5415TIP3    H237805   0.530   4.890   7.815 -2.2677 -1.1162 -0.9885
 5416TIP3   OH237806   2.335   4.853   0.843 -0.3254 -0.8718 -0.2963
 5416TIP3    H137807   2.294   4.772   0.814 -0.1492 -0.3191 -2.2372
 5416TIP3    H237808   2.313   4.860   0.936 -3.7382 -1.1356 -0.9639
 5417TIP3   OH237809   4.122   1.893   0.689 -0.0920  0.4304 -0.3572
 5417TIP3    H137810   4.062   1.967   0.703 -0.4825  0.1435 -0.4927
 5417TIP3    H237811   4.134   1.890   0.594 -1.3936 -0.6903 -0.5213
 5418TIP3   OH237812   6.129   0.364   7.738 -0.2828 -0.0322  0.8021
 5418TIP3    H137813   6.088   0.387   7.655 -0.4156  0.1716  0.9213
 5418TIP3    H237814   6.065   0.393   7.804  0.1034  0.3967  0.9929
 5419TIP3   OH237815   2.935   1.726   1.570 -0.1043  0.0868  0.3714
 5419TIP3    H137816   2.866   1.763   1.516  0.6499  1.1743  0.1210
 5419TIP3    H237817   2.890   1.663   1.627 -1.3082  0.8235  0.2690
 5420TIP3   OH237818   5.263   5.905   1.226  0.5768 -0.3833  0.5189
 5420TIP3    H137819   5.250   5.891   1.320  1.0954 -0.9903  0.5104
 5420TIP3    H237820   5.332   5.843   1.202 -1.6230 -2.4911 -0.8964
 5421TIP3   OH237821   6.751   1.633   2.236  0.2439 -0.0523 -0.1444
 5421TIP3    H137822   6.784   1.547   2.210  1.5298 -0.0235  1.2300
 5421TIP3    H237823   6.672   1.615   2.286  0.3085 -0.4173 -0.1737
 5422TIP3   OH237824   2.875   1.301   8.178  0.4282 -0.1542 -0.3531
 5422TIP3    H137825   2.857   1.395   8.179 -1.2327 -0.4414 -0.1583
 5422TIP3    H237826   2.918   1.286   8.094 -1.8774  0.3829 -1.7332
 5423TIP3   OH237827   4.130   0.758   1.119  0.3177  0.1398  0.9239
 5423TIP3    H137828   4.047   0.710   1.115 -0.0980  0.8362  1.0531
 5423TIP3    H237829   4.170   0.731   1.202  2.2952 -3.5041 -0.9533
 5424TIP3   OH237830   2.689   2.962   0.148  0.1237  0.1982  0.7107
 5424TIP3    H137831   2.722   2.918   0.227  0.9936 -0.2639  0.1046
 5424TIP3    H237832   2.761   3.020   0.121 -0.0229  0.0810  0.0519
 5425TIP3   OH237833   3.557   2.149   2.429  0.3792 -0.1724  0.3942
 5425TIP3    H137834   3.462   2.152   2.432  0.3754  0.1564  0.0402
 5425TIP3    H237835   3.578   2.158   2.336  0.7790  0.5674  0.5488
 5426TIP3   OH237836   4.547   3.127   8.396  0.0352  0.2132  0.0258
 5426TIP3    H137837   4.632   3.152   8.360  0.2138 -2.0175 -1.3275
 5426TIP3    H237838   4.491   3.118   8.319 -0.9826  0.1543  0.7673
 5427TIP3   OH237839   2.338   6.155   7.736 -0.1855  0.5224  0.2232
 5427TIP3    H137840   2.331   6.143   7.642 -1.0106  0.6963  0.2513
 5427TIP3    H237841   2.248   6.175   7.764 -0.0165  0.0828  1.0967
 5428TIP3   OH237842   2.570   4.473   7.289  0.2322  0.2721 -0.0769
 5428TIP3    H137843   2.522   4.467   7.206  0.6030  0.9539 -0.3525
 5428TIP3    H237844   2.660   4.447   7.267 -0.1468 -1.7942  0.6030
 5429TIP3   OH237845   6.287   0.662   7.242 -0.3956 -0.2762  0.2610
 5429TIP3    H137846   6.198   0.632   7.263 -0.5763 -0.0942 -0.2316
 5429TIP3    H237847   6.340   0.582   7.245 -0.0103 -0.0374  3.2897
 5430TIP3   OH237848   0.210   4.420   0.185  0.1823  0.5063  0.2126
 5430TIP3    H137849   0.245   4.453   0.268  0.4574 -0.2422  0.4023
 5430TIP3    H237850   0.210   4.496   0.127 -1.3937  1.4092  1.3256
 5431TIP3   OH237851   2.054   0.515   8.121  0.1015  0.0539 -0.1242
 5431TIP3    H137852   2.019   0.564   8.047  1.6586 -0.3749 -1.1991
 5431TIP3    H237853   2.048   0.423   8.093 -0.0199 -0.1705  0.6208
 5432TIP3   OH237854   5.900   1.653   2.225 -0.5329 -0.2035  0.3188
 5432TIP3    H137855   5.898   1.746   2.251  0.4402  0.4007 -1.5919
 5432TIP3    H237856   5.813   1.636   2.192 -0.7809 -0.0459  0.8699
 5433TIP3   OH237857   0.693   1.313   7.230  0.3150  0.3924  0.3839
 5433TIP3    H137858   0.774   1.307   7.179 -0.2349  1.2097 -0.6331
 5433TIP3    H237859   0.630   1.261   7.181  0.5032 -1.3146  1.8495
 5434TIP3   OH237860   1.891   6.762   0.768  0.3472  0.2978 -0.6179
 5434TIP3    H137861   1.938   6.694   0.817 -0.1110  0.6663  0.3423
 5434TIP3    H237862   1.959   6.824   0.743  0.4104  0.7832  0.6944
 5435TIP3   OH237863   1.847   3.870   0.250 -0.6055 -0.4284  0.1035
 5435TIP3    H137864   1.829   3.779   0.274 -0.4959 -0.5412 -0.2429
 5435TIP3    H237865   1.784   3.921   0.302 -0.2728 -0.6581  0.7455
 5436TIP3   OH237866   3.178   4.119   1.067  0.1489  0.1191 -0.6265
 5436TIP3    H137867   3.126   4.078   1.136 -1.3111  0.6709 -1.3452
 5436TIP3    H237868   3.170   4.213   1.083 -1.7621  0.3636 -2.5219
 5437TIP3   OH237869   2.650   3.595   7.414 -0.4463 -0.0204 -0.4709
 5437TIP3    H137870   2.731   3.628   7.375 -0.5070  1.9685  0.9328
 5437TIP3    H237871   2.585   3.662   7.394 -0.7582  0.4487  1.8377
 5438TIP3   OH237872   2.428   2.766   0.299  0.4939  0.4073 -0.6392
 5438TIP3    H137873   2.334   2.749   0.294  0.0319  2.0413  1.1773
 5438TIP3    H237874   2.458   2.718   0.376  0.5473  2.0755  0.4269
 5439TIP3   OH237875   1.445   0.064   7.347 -0.3188 -0.6341  0.0936
 5439TIP3    H137876   1.415   0.013   7.272  0.1503  0.4899 -0.8890
 5439TIP3    H237877   1.540   0.071   7.335 -0.5035  1.5639 -0.5458
 5440TIP3   OH237878   5.545   1.164   2.473  0.1559 -0.5304 -0.0440
 5440TIP3    H137879   5.536   1.147   2.379 -0.2745 -0.6323  0.0118
 5440TIP3    H237880   5.638   1.182   2.486  0.3307 -1.1500 -0.3876
 5441TIP3   OH237881   5.394   2.616   7.434  0.2846  0.8643 -0.1561
 5441TIP3    H137882   5.412   2.710   7.430 -0.2189  1.0080  0.6674
 5441TIP3    H237883   5.299   2.609   7.418  0.4798  0.3980 -1.2340
 5442TIP3   OH237884   2.434   3.004   2.668 -0.1368  0.1032  0.7221
 5442TIP3    H137885   2.380   3.081   2.682  0.5700  0.9850 -1.0822
 5442TIP3    H237886   2.523   3.038   2.659 -0.1231 -0.4868 -2.9588
 5443TIP3   OH237887   3.722   3.130   1.423  0.4441 -0.0020 -0.2348
 5443TIP3    H137888   3.772   3.173   1.493  0.2206  1.1428 -0.7571
 5443TIP3    H237889   3.761   3.162   1.342  1.5616 -2.3211 -0.6982
 5444TIP3   OH237890   6.123   3.334   1.835 -0.2307  0.5508  0.1752
 5444TIP3    H137891   6.159   3.253   1.799 -0.0889  1.1090 -1.0015
 5444TIP3    H237892   6.086   3.309   1.919  0.3183 -0.6191  0.0889
 5445TIP3   OH237893   5.938   1.653   7.575  0.3239  0.3499  0.4764
 5445TIP3    H137894   5.900   1.584   7.629  1.8716 -0.3408  0.7544
 5445TIP3    H237895   5.934   1.732   7.629  0.9282 -0.1106  1.2074
 5446TIP3   OH237896   1.022   1.352   0.075 -0.7371 -0.8779 -0.4333
 5446TIP3    H137897   0.936   1.316   0.050 -1.3772  0.0761  0.3369
 5446TIP3    H237898   1.020   1.443   0.043 -1.1405  0.0377  2.0265
 5447TIP3   OH237899   2.681   4.481   8.155 -0.5581 -0.2758 -0.6841
 5447TIP3    H137900   2.756   4.450   8.206 -0.5190 -1.2457 -1.3109
 5447TIP3    H237901   2.622   4.518   8.221  0.5876  0.7866 -0.2168
 5448TIP3   OH237902   4.728   0.025   1.313  0.5700 -0.8904  0.2381
 5448TIP3    H137903   4.685   0.026   1.228  1.1853 -0.4029 -0.0690
 5448TIP3    H237904   4.751   0.116   1.330  1.5898 -1.1535  0.3401
 5449TIP3   OH237905   5.855   6.672   8.517 -0.0771  0.0656 -0.1908
 5449TIP3    H137906   5.940   6.716   8.517 -0.3857  0.7248  1.7512
 5449TIP3    H237907   5.816   6.692   8.602 -2.6893  0.7230 -1.4146
 5450TIP3   OH237908   4.291   3.075   1.203 -0.1787  0.3802  0.1579
 5450TIP3    H137909   4.304   3.016   1.277 -3.1520 -0.0512  0.4605
 5450TIP3    H237910   4.355   3.046   1.137 -0.2434 -1.9279  1.0278
 5451TIP3   OH237911   0.142   5.503   8.216  0.3939  0.4725  0.4017
 5451TIP3    H137912   0.202   5.433   8.242 -1.3725 -0.6585  1.7241
 5451TIP3    H237913   0.190   5.584   8.235  2.6997 -0.2994 -1.6886
 5452TIP3   OH237914   3.155   3.927   0.687 -0.0688 -0.5745  0.7840
 5452TIP3    H137915   3.083   3.917   0.750 -0.4507 -1.7614  0.1893
 5452TIP3    H237916   3.223   3.973   0.736 -1.7609  1.9388  0.9216
 5453TIP3   OH237917   2.028   5.917   0.997 -0.0818  0.0089  0.1475
 5453TIP3    H137918   1.945   5.934   1.042  0.5064 -0.4346  1.4509
 5453TIP3    H237919   2.094   5.959   1.051  0.4218  2.1125 -1.9347
 5454TIP3   OH237920   5.223   0.296   0.832  0.9547 -0.4802 -0.4448
 5454TIP3    H137921   5.314   0.296   0.804  0.6252  0.1329 -1.5751
 5454TIP3    H237922   5.186   0.375   0.793  0.3084  0.1166  1.2618
 5455TIP3   OH237923   0.249   0.322   1.203  0.0485 -0.2143  0.0059
 5455TIP3    H137924   0.319   0.334   1.266 -0.0403 -0.2181  0.1060
 5455TIP3    H237925   0.246   0.227   1.189 -1.4012 -0.4788  1.6982
 5456TIP3   OH237926   0.677   2.819   0.670 -0.7174  0.5888 -0.7545
 5456TIP3    H137927   0.676   2.812   0.765  1.2881 -0.8968 -0.7609
 5456TIP3    H237928   0.676   2.728   0.640  0.4611  0.9745 -2.0749
 5457TIP3   OH237929   3.875   0.643   7.012 -0.4680  0.4183 -0.2719
 5457TIP3    H137930   3.801   0.681   6.964 -2.1141 -1.5245  0.5965
 5457TIP3    H237931   3.861   0.671   7.102 -0.8511 -0.9589  0.1086
 5458TIP3   OH237932   3.153   0.230   8.254 -0.3739  0.4978 -0.0985
 5458TIP3    H137933   3.221   0.217   8.188 -1.2499  0.3315 -0.9752
 5458TIP3    H237934   3.128   0.322   8.244  0.1943  0.7563  0.7026
 5459TIP3   OH237935   3.085   4.985   8.160 -0.2715 -0.6577  0.0229
 5459TIP3    H137936   3.161   4.973   8.217  0.5274  1.6604 -0.4385
 5459TIP3    H237937   3.109   4.940   8.079 -0.1361 -1.4120  0.4773
 5460TIP3   OH237938   2.881   5.369   7.507 -0.2868  0.0268  0.2924
 5460TIP3    H137939   2.804   5.329   7.466  0.4595 -1.6960  0.4941
 5460TIP3    H237940   2.867   5.356   7.600 -0.8455  1.8275  0.4919
 5461TIP3   OH237941   6.053   4.940   2.078  0.5317  0.2184 -0.5878
 5461TIP3    H137942   5.990   5.008   2.102 -0.3372 -0.2651 -1.4402
 5461TIP3    H237943   6.035   4.921   1.986 -0.9601 -2.9047  0.1945
 5462TIP3   OH237944   2.630   5.375   8.526  0.1651 -0.2260  0.1682
 5462TIP3    H137945   2.691   5.350   8.595  0.0992  1.6604  0.9679
 5462TIP3    H237946   2.628   5.300   8.467  0.6803 -1.6454  1.8905
 5463TIP3   OH237947   3.418   4.010   8.556 -0.0101  0.1306 -0.0109
 5463TIP3    H137948   3.375   4.072   8.615  1.6412 -0.6941  2.2410
 5463TIP3    H237949   3.351   3.944   8.537 -0.8484  0.9112  0.1713
 5464TIP3   OH237950   2.931   4.244   0.342  0.4153 -0.2970 -0.1337
 5464TIP3    H137951   2.916   4.320   0.398  0.6103 -1.2416  1.2727
 5464TIP3    H237952   3.006   4.201   0.381  0.2345 -1.2707 -0.8317
 5465TIP3   OH237953   0.033   0.985   8.169 -0.0159 -0.8298  0.2255
 5465TIP3    H137954   0.071   0.967   8.255  0.9771  0.8727  0.2011
 5465TIP3    H237955   0.100   0.957   8.107  0.5846  0.6576  0.1393
 5466TIP3   OH237956   4.092   0.564   7.675  0.0041  0.0324 -0.5667
 5466TIP3    H137957   4.091   0.469   7.682  0.8158  0.0303 -0.3298
 5466TIP3    H237958   4.179   0.589   7.706  0.7491  0.6576 -2.9780
 5467TIP3   OH237959   0.681   4.597   2.100 -0.2252 -0.0746  0.1135
 5467TIP3    H137960   0.630   4.522   2.131  0.0853 -1.4152 -2.3328
 5467TIP3    H237961   0.771   4.575   2.121 -0.0182 -0.9681 -1.5227
 5468TIP3   OH237962   3.639   6.725   8.244  0.3151  0.4353  0.1101
 5468TIP3    H137963   3.636   6.802   8.300 -0.2241 -0.3192  1.1667
 5468TIP3    H237964   3.721   6.681   8.267  0.6019  0.6657 -0.4594
 5469TIP3   OH237965   3.805   2.174   1.228  1.0509  0.0511 -0.1973
 5469TIP3    H137966   3.713   2.156   1.209  1.2429 -1.1415 -0.0861
 5469TIP3    H237967   3.811   2.175   1.323  1.1770 -0.0158 -0.2038
 5470TIP3   OH237968   4.783   1.197   0.759 -0.2822 -0.2827 -0.3864
 5470TIP3    H137969   4.749   1.287   0.760 -2.2210 -0.9614  1.8819
 5470TIP3    H237970   4.855   1.198   0.822 -0.8584 -0.4920  0.2846
 5471TIP3   OH237971   4.586   4.942   2.289 -0.5031  0.2203 -0.3155
 5471TIP3    H137972   4.659   4.994   2.322  0.1136 -1.0992  0.4590
 5471TIP3    H237973   4.508   4.987   2.321  0.0218  0.4129  0.7108
 5472TIP3   OH237974   5.448   3.446   0.098 -0.6991 -0.3275  0.2593
 5472TIP3    H137975   5.405   3.411   0.176 -0.3888 -1.5036 -0.0770
 5472TIP3    H237976   5.508   3.513   0.132  0.0850 -1.4481  1.1246
 5473TIP3   OH237977   4.765   0.089   2.283 -0.0165 -0.1224 -0.1137
 5473TIP3    H137978   4.824   0.163   2.276 -0.9122  0.5957 -0.2622
 5473TIP3    H237979   4.793   0.044   2.363 -1.4784  2.2330  1.8725
 5474TIP3   OH237980   2.440   2.221   7.849 -0.4195  0.1923  0.3703
 5474TIP3    H137981   2.456   2.136   7.890  1.0953  0.9251  1.3720
 5474TIP3    H237982   2.522   2.269   7.860 -0.4211  0.9575 -2.2618
 5475TIP3   OH237983   4.522   2.868   7.247 -0.3721  0.4150 -0.2090
 5475TIP3    H137984   4.494   2.901   7.161 -2.3967 -1.5539 -0.3971
 5475TIP3    H237985   4.568   2.787   7.227  2.5517  1.8111  0.3946
 5476TIP3   OH237986   1.772   4.084   1.531 -0.6124  0.1544 -0.3320
 5476TIP3    H137987   1.778   4.148   1.602 -0.1140  0.4335 -0.6261
 5476TIP3    H237988   1.686   4.043   1.543 -1.0840  1.1229 -0.3558
 5477TIP3   OH237989   6.071   4.287   1.815  0.4869 -0.9394  0.1879
 5477TIP3    H137990   5.990   4.337   1.806  1.6044  1.1669  1.1283
 5477TIP3    H237991   6.103   4.308   1.902  1.3752 -2.8228  0.3653
 5478TIP3   OH237992   0.367   3.090   1.914  0.4801  0.0327  0.3499
 5478TIP3    H137993   0.443   3.116   1.861 -0.2084  0.6769 -0.3317
 5478TIP3    H237994   0.357   3.160   1.978  0.9428 -0.4563  0.9868
 5479TIP3   OH237995   1.027   0.147   2.309  0.5625  0.0544 -0.3881
 5479TIP3    H137996   1.117   0.116   2.310 -0.0646 -1.9499 -1.4921
 5479TIP3    H237997   1.030   0.229   2.259  1.7817  0.1556 -0.1698
 5480TIP3   OH237998   5.856   5.107   2.191 -0.4534 -0.5515 -0.5214
 5480TIP3    H137999   5.776   5.055   2.196 -0.9818  0.3102  0.1154
 5480TIP3    H238000   5.873   5.134   2.281  0.2618 -0.2878 -0.7316
 5481TIP3   OH238001   4.389   0.562   8.389  0.1025 -0.2671  0.0668
 5481TIP3    H138002   4.463   0.583   8.445  0.4356  1.3428 -0.9040
 5481TIP3    H238003   4.421   0.491   8.332  0.2694 -0.8291  0.8505
 5482TIP3   OH238004   6.882   1.674   0.216 -0.3214  0.0440  0.5282
 5482TIP3    H138005   6.789   1.665   0.235 -0.2151 -2.0285  0.2622
 5482TIP3    H238006   6.898   1.610   0.146  1.4050 -0.0411  0.9686
 5483TIP3   OH238007   3.134   0.777   0.594 -0.7851 -0.5146 -0.3112
 5483TIP3    H138008   3.124   0.701   0.652 -2.2918  0.8968  1.3983
 5483TIP3    H238009   3.165   0.847   0.651 -0.6602  0.5106 -1.5845
 5484TIP3   OH238010   2.076   6.559   0.205 -0.1384 -0.0104  0.3098
 5484TIP3    H138011   2.162   6.537   0.241  1.9650  3.3508 -2.0594
 5484TIP3    H238012   2.039   6.621   0.268  0.2022  0.2482  0.2567
 5485TIP3   OH238013   5.795   1.514   7.773  0.1806 -0.3555 -0.0070
 5485TIP3    H138014   5.814   1.420   7.772 -1.1111 -0.6690  1.1537
 5485TIP3    H238015   5.760   1.530   7.861 -1.0572  0.9019 -0.6924
 5486TIP3   OH238016   4.743   5.159   7.075  0.2863  0.1666  0.4741
 5486TIP3    H138017   4.707   5.103   7.006 -1.2084  1.0123  0.5247
 5486TIP3    H238018   4.704   5.125   7.156 -0.5593  1.1721  0.5179
 5487TIP3   OH238019   2.007   2.861   1.096  0.7523 -0.1231 -0.6326
 5487TIP3    H138020   1.961   2.841   1.015  0.9542 -0.6419 -0.6224
 5487TIP3    H238021   2.084   2.804   1.095  0.0439 -1.1326  0.5655
 5488TIP3   OH238022   1.334   3.334   8.542 -0.4463 -0.7727  0.3175
 5488TIP3    H138023   1.286   3.399   8.593  1.0456 -0.1464  0.9586
 5488TIP3    H238024   1.285   3.252   8.555 -2.1501  0.0970 -0.2247
 5489TIP3   OH238025   0.395   3.266   7.347  0.1151 -0.1972  0.1631
 5489TIP3    H138026   0.457   3.251   7.418  0.7900  0.2930 -0.3160
 5489TIP3    H238027   0.363   3.178   7.324  1.5454 -0.5998 -0.4039
 5490TIP3   OH238028   5.690   5.744   7.863 -0.3249 -0.4847 -0.5129
 5490TIP3    H138029   5.638   5.664   7.877 -1.6210  0.3271 -0.4932
 5490TIP3    H238030   5.771   5.713   7.824  0.3964 -2.1329  1.9812
 5491TIP3   OH238031   2.560   0.051   1.712  0.4704 -0.3281  0.2260
 5491TIP3    H138032   2.516  -0.010   1.653 -0.9900  0.3730  0.5444
 5491TIP3    H238033   2.639   0.078   1.665  1.6421 -3.0515  0.4092
 5492TIP3   OH238034   2.905   0.342   0.097  0.1612 -0.4513 -0.5140
 5492TIP3    H138035   2.926   0.271   0.037  1.0323 -0.9103  0.3196
 5492TIP3    H238036   2.942   0.420   0.055  1.2334 -0.8482 -0.3343
 5493TIP3   OH238037   2.672   5.124   7.874 -0.2363 -0.2033 -0.7650
 5493TIP3    H138038   2.600   5.071   7.839 -0.0493 -1.0475  0.0554
 5493TIP3    H238039   2.714   5.066   7.938 -0.1531  1.0259  0.3228
 5494TIP3   OH238040   1.891   5.898   8.583  0.3025 -0.3295 -0.3024
 5494TIP3    H138041   1.905   5.992   8.593  0.6718 -0.4579  0.4964
 5494TIP3    H238042   1.973   5.866   8.545  0.8065 -0.5394  0.8948
 5495TIP3   OH238043   3.014   5.184   7.000 -0.0401 -0.6475  0.3802
 5495TIP3    H138044   3.039   5.270   7.034 -0.0923 -0.7312  0.6289
 5495TIP3    H238045   2.932   5.200   6.953  0.6942 -0.2849 -0.8288
 5496TIP3   OH238046   0.361   6.102   7.662 -0.0161 -0.0498 -0.0083
 5496TIP3    H138047   0.284   6.144   7.623 -0.2289  0.8908  1.4000
 5496TIP3    H238048   0.329   6.062   7.742  0.9676  0.3738  0.6146
 5497TIP3   OH238049   3.385   4.063   0.868  0.3217 -0.2840 -0.3445
 5497TIP3    H138050   3.324   4.070   0.942  0.1702  0.1059 -0.5027
 5497TIP3    H238051   3.430   4.147   0.867  0.5944 -0.4326 -0.4610
 5498TIP3   OH238052   2.843   1.688   7.663  0.1525 -0.5353  0.5241
 5498TIP3    H138053   2.787   1.762   7.687  1.0965  0.4674 -0.2733
 5498TIP3    H238054   2.881   1.660   7.746 -0.3044 -0.2021  0.8543
 5499TIP3   OH238055   2.009   1.782   0.795 -0.1306  1.0695 -0.4504
 5499TIP3    H138056   2.016   1.862   0.846 -2.0445  0.9594  0.0707
 5499TIP3    H238057   1.976   1.717   0.857 -2.0781  0.8128 -1.6614
 5500TIP3   OH238058   6.839   3.711   0.245 -0.0574  0.0560  0.2823
 5500TIP3    H138059   6.859   3.618   0.237 -1.1173 -0.0746 -1.0918
 5500TIP3    H238060   6.774   3.716   0.315 -1.3147 -0.4662 -0.8102
 5501TIP3   OH238061   5.471   2.501   7.694  0.0839  0.5692  0.0794
 5501TIP3    H138062   5.438   2.543   7.615  0.9646  0.4412 -0.3660
 5501TIP3    H238063   5.503   2.416   7.665  0.0473  0.3588  0.6452
 5502TIP3   OH238064   2.626   2.430   7.874 -0.2508  0.2536 -0.2762
 5502TIP3    H138065   2.685   2.427   7.799 -0.2106  1.0210 -0.2851
 5502TIP3    H238066   2.552   2.483   7.844 -1.2623 -1.1875 -0.4711
 5503TIP3   OH238067   1.305   6.599   2.820 -0.2292 -0.1234 -0.5760
 5503TIP3    H138068   1.354   6.647   2.885  0.2129  1.9817 -2.3476
 5503TIP3    H238069   1.370   6.544   2.776 -0.3959 -0.9698  0.1895
 5504TIP3   OH238070   2.697   3.624   1.951 -0.0944  0.2905  0.1395
 5504TIP3    H138071   2.785   3.614   1.988 -1.2584  0.1689  3.1012
 5504TIP3    H238072   2.682   3.719   1.950 -0.3608  0.2560  0.7469
 5505TIP3   OH238073   3.100   6.369   1.817  0.4831  0.0090 -0.0092
 5505TIP3    H138074   3.168   6.322   1.768 -0.1695  1.2163 -2.2388
 5505TIP3    H238075   3.148   6.418   1.883  1.6373 -0.2352 -0.6348
 5506TIP3   OH238076   1.600   3.480   7.949  0.1702 -0.4633 -0.1917
 5506TIP3    H138077   1.563   3.480   7.861 -1.7590 -0.7512  0.5617
 5506TIP3    H238078   1.572   3.397   7.987  0.5902 -0.1527  0.8400
 5507TIP3   OH238079   4.154   5.431   0.801 -0.4463  0.3264 -0.0875
 5507TIP3    H138080   4.241   5.470   0.788 -0.5641  0.4818 -0.4313
 5507TIP3    H238081   4.115   5.432   0.714 -1.0448  0.8509  0.1899
 5508TIP3   OH238082   1.734   4.989   2.263 -0.7657 -0.4994 -0.0072
 5508TIP3    H138083   1.784   5.012   2.341  0.1824 -1.3117 -0.3382
 5508TIP3    H238084   1.664   4.932   2.295 -1.4840  0.6377  0.4634
 5509TIP3   OH238085   0.060   3.603   0.902 -0.0627 -0.3746 -0.5152
 5509TIP3    H138086   0.091   3.514   0.886 -0.6248 -0.5888 -0.4386
 5509TIP3    H238087   0.058   3.644   0.816  0.4567 -0.3458 -0.5174
 5510TIP3   OH238088   3.039   6.343   8.138 -0.0340  0.3218  0.0620
 5510TIP3    H138089   3.103   6.400   8.095  0.4223 -0.0746  0.2033
 5510TIP3    H238090   3.050   6.361   8.231  0.1568 -0.0371  0.1113
 5511TIP3   OH238091   5.128   1.229   7.228  0.0018 -0.3644  0.1182
 5511TIP3    H138092   5.045   1.274   7.246 -1.0795 -3.1208  2.8087
 5511TIP3    H238093   5.187   1.260   7.296  0.0136 -1.1089  0.4553
 5512TIP3   OH238094   3.098   2.465   0.908 -0.3813 -0.1863  0.0108
 5512TIP3    H138095   3.009   2.455   0.874  0.4506  0.6821 -2.7483
 5512TIP3    H238096   3.137   2.378   0.897 -0.4082 -0.1463 -0.4424
 5513TIP3   OH238097   6.448   4.576   0.466 -0.3360 -0.2026 -0.0061
 5513TIP3    H138098   6.498   4.640   0.415 -0.7403  0.3947  0.3314
 5513TIP3    H238099   6.515   4.521   0.507 -0.0139 -1.0335 -1.5883
 5514TIP3   OH238100   0.578   4.429   1.442  0.2298 -0.2162 -0.0440
 5514TIP3    H138101   0.484   4.432   1.464  0.1495 -1.4623 -0.1466
 5514TIP3    H238102   0.607   4.520   1.449 -0.3620 -0.1611  2.7067
 5515TIP3   OH238103   0.041   0.357   2.097  0.0879  0.1610  0.7887
 5515TIP3    H138104  -0.043   0.342   2.140 -0.4407 -1.2929 -0.6780
 5515TIP3    H238105   0.028   0.438   2.047  0.3768  1.2778  2.4279
 5516TIP3   OH238106   1.601   4.651   8.221  0.8321  0.6403  0.2562
 5516TIP3    H138107   1.543   4.708   8.271 -1.2486 -1.2011  0.0838
 5516TIP3    H238108   1.616   4.698   8.139 -2.4039  0.2822 -0.7030
 5517TIP3   OH238109   4.968   6.080   7.641  0.0243  0.2001 -0.2296
 5517TIP3    H138110   4.927   6.166   7.634 -0.1526  0.0907 -0.5996
 5517TIP3    H238111   4.987   6.056   7.550  2.5479  1.0215 -0.0107
 5518TIP3   OH238112   5.177   6.309   0.771  0.3918 -0.4052 -0.4120
 5518TIP3    H138113   5.183   6.395   0.812 -0.1681  0.1149 -1.3621
 5518TIP3    H238114   5.160   6.249   0.843 -1.5852  0.6081  0.0465
 5519TIP3   OH238115   0.853   3.937   0.086  0.0561  0.3387  0.5226
 5519TIP3    H138116   0.907   4.015   0.104 -0.3506  0.4861  1.1410
 5519TIP3    H238117   0.832   3.903   0.173 -0.9722  0.3667  0.2888
 5520TIP3   OH238118   1.651   6.080   0.166  0.5182 -0.9792  0.0996
 5520TIP3    H138119   1.738   6.075   0.205  0.9343  1.8409 -0.2777
 5520TIP3    H238120   1.664   6.056   0.075  1.1891  0.7125 -0.2717
 5521TIP3   OH238121   6.542   5.043   7.597  0.5440  0.0029 -1.0570
 5521TIP3    H138122   6.552   4.970   7.535  0.9957 -1.0748  0.2274
 5521TIP3    H238123   6.624   5.091   7.591  0.4179  0.1469 -1.6054
 5522TIP3   OH238124   3.204   2.029   1.058 -0.0216  0.3248 -0.0420
 5522TIP3    H138125   3.162   1.988   1.133 -0.1664  1.5769  0.5829
 5522TIP3    H238126   3.148   2.004   0.984  0.0899 -0.8723  0.2495
 5523TIP3   OH238127   5.373   6.218   7.665 -0.0264  0.2901 -0.1794
 5523TIP3    H138128   5.322   6.148   7.705  0.9206  0.1585  0.8507
 5523TIP3    H238129   5.310   6.268   7.614 -0.7379 -1.2660 -0.8774
 5524TIP3   OH238130   1.881   5.283   1.006 -0.0715  0.1017 -0.1656
 5524TIP3    H138131   1.961   5.283   0.953 -1.5243  0.2285 -2.5455
 5524TIP3    H238132   1.887   5.364   1.057  0.7023  0.8634 -1.3824
 5525TIP3   OH238133   3.879   6.890   0.279 -0.0218 -0.1179 -0.3866
 5525TIP3    H138134   3.800   6.944   0.281  0.5114  0.6878 -0.7153
 5525TIP3    H238135   3.861   6.826   0.210 -1.1030 -1.0856  0.7409
 5526TIP3   OH238136   6.844   3.859   7.891  0.1245  0.4635  0.3620
 5526TIP3    H138137   6.781   3.912   7.843 -0.6642  0.4638  1.3582
 5526TIP3    H238138   6.891   3.921   7.946  1.5019  0.5591 -0.8670
 5527TIP3   OH238139   2.582   4.976   2.230  0.2780 -0.4461  0.0789
 5527TIP3    H138140   2.628   5.048   2.273  2.0265 -1.1848 -0.4434
 5527TIP3    H238141   2.639   4.952   2.157 -0.5278 -1.9913 -0.0854
 5528TIP3   OH238142   1.060   2.137   8.291 -0.1581 -0.1854  0.3467
 5528TIP3    H138143   1.065   2.104   8.201  2.1414 -0.3614  0.4745
 5528TIP3    H238144   1.006   2.215   8.285 -2.7054 -1.8948 -0.6030
 5529TIP3   OH238145   2.785   5.322   7.747  0.0809 -0.3884 -0.6250
 5529TIP3    H138146   2.723   5.394   7.755  1.1460  0.4355  0.5407
 5529TIP3    H238147   2.744   5.250   7.796 -0.3753 -0.1611 -0.6669
 5530TIP3   OH238148   4.711   5.478   1.381  0.2236 -0.9293 -0.2267
 5530TIP3    H138149   4.649   5.405   1.382  0.9806 -1.5689  0.8625
 5530TIP3    H238150   4.771   5.461   1.453 -0.4699  1.5503  1.0478
 5531TIP3   OH238151   2.766   1.304   1.437  0.2968 -0.3058  0.7507
 5531TIP3    H138152   2.860   1.316   1.452 -0.0801  0.4758  2.8133
 5531TIP3    H238153   2.756   1.210   1.425  1.0619 -0.7753  3.1968
 5532TIP3   OH238154   6.582   0.282   1.060 -0.5405  0.3552  0.0675
 5532TIP3    H138155   6.512   0.326   1.109  0.3546 -1.2092  2.9579
 5532TIP3    H238156   6.615   0.350   1.000 -1.7175  2.4402  1.6358
 5533TIP3   OH238157   3.823   5.910   8.176 -0.1732 -0.2781 -0.1599
 5533TIP3    H138158   3.836   5.889   8.083 -0.7795  1.6245 -0.7314
 5533TIP3    H238159   3.858   5.999   8.185 -0.7285 -0.1795  1.2844
 5534TIP3   OH238160   5.020   2.745   0.799  0.4530 -0.2080 -0.4092
 5534TIP3    H138161   5.014   2.666   0.853  0.9231  0.7715  1.1454
 5534TIP3    H238162   4.931   2.779   0.796  0.3730 -0.4264 -0.5036
 5535TIP3   OH238163   4.683   1.876   0.645 -0.1770 -0.1528  0.5349
 5535TIP3    H138164   4.732   1.799   0.673 -0.4437  0.1857  2.0244
 5535TIP3    H238165   4.611   1.883   0.708 -1.5254 -0.0243 -0.9713
 5536TIP3   OH238166   4.627   1.507   1.532 -0.4245  0.1893  0.8135
 5536TIP3    H138167   4.609   1.588   1.579  1.4345  2.7431 -2.4028
 5536TIP3    H238168   4.722   1.509   1.517 -0.3814 -2.4253  0.2848
 5537TIP3   OH238169   4.029   5.021   2.310  0.1321  0.1804 -0.0176
 5537TIP3    H138170   4.119   5.029   2.340  0.6807  0.0511 -1.5487
 5537TIP3    H238171   3.977   5.063   2.378  1.3576  0.4385  0.7903
 5538TIP3   OH238172   1.491   0.440   2.083  0.7522  0.1937  0.1641
 5538TIP3    H138173   1.540   0.521   2.067  2.2813 -0.4374  1.4138
 5538TIP3    H238174   1.557   0.375   2.104 -0.4217 -1.5167 -1.1346
 5539TIP3   OH238175   5.467   6.455   2.145  0.1190 -0.4953 -0.4941
 5539TIP3    H138176   5.443   6.427   2.057  0.1271 -0.6806 -0.4380
 5539TIP3    H238177   5.514   6.537   2.133 -0.7793  0.0160 -0.5907
 5540TIP3   OH238178   0.471   1.038   7.435  0.5409 -0.2585 -0.2869
 5540TIP3    H138179   0.413   0.990   7.493  0.6067  0.2827  0.2352
 5540TIP3    H238180   0.531   0.972   7.401 -0.3700 -0.8292 -0.8392
 5541TIP3   OH238181   5.803   1.730   0.821 -0.5143  0.1039 -0.1137
 5541TIP3    H138182   5.793   1.727   0.726 -1.8374  0.3331 -0.0047
 5541TIP3    H238183   5.869   1.797   0.837 -0.4884  0.2633 -0.8626
 5542TIP3   OH238184   2.624   4.519   7.880 -0.1587  0.2241  0.3624
 5542TIP3    H138185   2.654   4.539   7.969 -0.8479  0.4888  0.5436
 5542TIP3    H238186   2.550   4.460   7.892 -0.6437  0.7398  0.0013
 5543TIP3   OH238187   4.271   3.704   8.344 -0.1210 -0.3600  0.3763
 5543TIP3    H138188   4.305   3.670   8.428  0.1954  0.3753  0.5556
 5543TIP3    H238189   4.349   3.737   8.299 -0.6231  1.9748  1.0733
 5544TIP3   OH238190   4.104   0.394   8.330 -0.0789 -0.8271  0.2734
 5544TIP3    H138191   4.198   0.381   8.315  0.1452  0.8916 -0.0412
 5544TIP3    H238192   4.073   0.310   8.365  2.3548 -0.3616  4.2061
 5545TIP3   OH238193   6.258   4.990   2.964 -0.3200 -0.1589  0.0027
 5545TIP3    H138194   6.273   4.896   2.972 -1.3090 -0.4385 -1.1407
 5545TIP3    H238195   6.171   4.998   2.925 -0.0340  1.2206 -0.4248
 5546TIP3   OH238196   6.084   2.083   2.207  0.0642 -0.2328 -0.2195
 5546TIP3    H138197   6.037   2.148   2.155  1.5034  0.7489 -0.3761
 5546TIP3    H238198   6.157   2.132   2.245 -0.1345 -1.2575  1.5783
 5547TIP3   OH238199   0.449   2.601   8.337  0.3310  0.2259  0.4846
 5547TIP3    H138200   0.543   2.618   8.327  0.1759  1.6241  1.1333
 5547TIP3    H238201   0.416   2.679   8.381 -1.3283  0.2304 -0.6783
 5548TIP3   OH238202   3.065   6.611   1.436  0.9520 -0.3206 -0.0922
 5548TIP3    H138203   3.148   6.587   1.478  1.3306  2.8916  1.2788
 5548TIP3    H238204   2.998   6.573   1.493  1.5012  1.4302  1.8228
 5549TIP3   OH238205   3.030   2.159   7.044  0.1000 -0.2590 -0.1999
 5549TIP3    H138206   3.057   2.106   6.969 -0.1407  1.1567 -1.3359
 5549TIP3    H238207   3.109   2.204   7.071 -0.1857  0.6265 -0.7973
 5550TIP3   OH238208   5.605   3.539   0.335  0.0364  0.2359  0.1795
 5550TIP3    H138209   5.606   3.635   0.333  0.5565  0.2271  0.0147
 5550TIP3    H238210   5.527   3.518   0.388 -0.7250  0.7227 -0.7159
 5551TIP3   OH238211   6.734   2.820   1.884 -0.1601  0.0359 -0.5487
 5551TIP3    H138212   6.778   2.875   1.820  1.0986  0.2405  0.4417
 5551TIP3    H238213   6.672   2.878   1.927  1.5681  0.9290  0.8951
 5552TIP3   OH238214   3.053   2.615   1.137 -0.7345  0.3277 -0.1581
 5552TIP3    H138215   2.977   2.561   1.159 -2.2386  2.6673  0.7915
 5552TIP3    H238216   3.073   2.592   1.047 -2.8188 -0.1178 -0.5633
 5553TIP3   OH238217   2.333   3.132   8.064  0.0618 -0.2880 -0.0548
 5553TIP3    H138218   2.404   3.173   8.113 -0.0868  0.9999 -0.8508
 5553TIP3    H238219   2.317   3.049   8.108  1.6318 -0.3107  0.5146
 5554TIP3   OH238220   1.763   6.915   1.094  0.1895  0.2360  0.5293
 5554TIP3    H138221   1.747   6.824   1.071  0.4836 -0.0450  1.3878
 5554TIP3    H238222   1.728   6.924   1.183 -1.0192  1.3047 -0.0262
 5555TIP3   OH238223   6.691   5.659   1.873  0.2207  0.1158 -0.2395
 5555TIP3    H138224   6.656   5.656   1.784  0.1196 -0.0696 -0.1940
 5555TIP3    H238225   6.672   5.573   1.910 -1.2241  0.7327  0.5332
 5556TIP3   OH238226   6.895   2.629   7.926  0.2633 -0.1685 -0.1760
 5556TIP3    H138227   6.853   2.546   7.906  0.1394  0.3081 -2.1234
 5556TIP3    H238228   6.966   2.636   7.861  2.1601 -0.0761  1.7988
 5557TIP3   OH238229   3.442   0.302   0.138  0.3117 -0.2492  0.2627
 5557TIP3    H138230   3.364   0.286   0.085  1.8799 -0.8257 -1.9889
 5557TIP3    H238231   3.409   0.348   0.215 -2.3024 -0.9225 -0.3593
 5558TIP3   OH238232   3.453   4.540   6.659  0.8654  0.1569 -0.5465
 5558TIP3    H138233   3.520   4.479   6.689  0.1346 -0.3340  0.1193
 5558TIP3    H238234   3.430   4.591   6.736 -1.5212 -1.5834 -0.0043
 5559TIP3   OH238235   5.691   5.423   1.341 -0.0920 -0.0832  0.0278
 5559TIP3    H138236   5.688   5.470   1.424  0.3056 -0.2208  0.1227
 5559TIP3    H238237   5.601   5.392   1.327 -0.0887 -0.3360  0.5648
 5560TIP3   OH238238   4.383   5.637   0.132  0.0682  0.2645 -0.8516
 5560TIP3    H138239   4.418   5.684   0.056 -0.8525  1.5500 -0.5082
 5560TIP3    H238240   4.408   5.691   0.207  0.1747 -0.5211 -0.3078
 5561TIP3   OH238241   6.812   3.699   8.279 -0.5724  0.3817 -0.6727
 5561TIP3    H138242   6.817   3.643   8.356  0.6311  0.7544 -0.4566
 5561TIP3    H238243   6.719   3.707   8.261 -0.9889  1.4043  1.5818
 5562TIP3   OH238244   5.750   2.627   8.552 -0.5467 -0.2794 -0.0317
 5562TIP3    H138245   5.803   2.707   8.555 -0.5999 -0.2664  1.8023
 5562TIP3    H238246   5.661   2.657   8.568 -0.7347 -0.5992 -0.4509
 5563TIP3   OH238247   4.164   3.894   1.640 -0.1967 -0.4313  0.1104
 5563TIP3    H138248   4.155   3.959   1.570 -0.7077  0.3531  0.8891
 5563TIP3    H238249   4.091   3.833   1.626 -0.6855  0.0982  0.3512
 5564TIP3   OH238250   5.173   3.148   1.854 -0.0622  0.2573  0.3967
 5564TIP3    H138251   5.174   3.215   1.922  1.6682  0.1225  0.5616
 5564TIP3    H238252   5.228   3.185   1.784  0.2327 -0.6365  0.1453
 5565TIP3   OH238253   4.853   3.264   0.158  0.1984 -0.3396  0.2454
 5565TIP3    H138254   4.908   3.235   0.085 -0.9065 -1.5875 -0.1204
 5565TIP3    H238255   4.895   3.228   0.235  1.0510  0.5017  0.1974
 5566TIP3   OH238256   2.445   2.161   2.986 -0.2466 -0.7785 -0.1304
 5566TIP3    H138257   2.449   2.103   2.910 -1.5193  1.1178 -1.7452
 5566TIP3    H238258   2.366   2.132   3.033 -0.9797 -0.3022 -1.0247
 5567TIP3   OH238259   4.367   0.625   7.447 -0.2550  0.2721  0.3267
 5567TIP3    H138260   4.276   0.634   7.417 -0.7746 -1.0491  1.3951
 5567TIP3    H238261   4.360   0.621   7.543  0.7932 -1.1129  0.3696
 5568TIP3   OH238262   5.705   1.980   7.507  0.1978  0.0882 -0.0049
 5568TIP3    H138263   5.697   1.901   7.561  0.6587 -0.3916 -0.6217
 5568TIP3    H238264   5.778   2.029   7.546 -1.8013  1.6348  2.1022
 5569TIP3   OH238265   2.718   1.947   8.230  0.8663  0.5221 -0.1670
 5569TIP3    H138266   2.646   1.884   8.228 -0.0345  1.4832  0.5920
 5569TIP3    H238267   2.714   1.991   8.145  1.2836 -0.2059 -0.5659
 5570TIP3   OH238268   4.518   1.941   1.920  0.1107  0.0592 -0.3315
 5570TIP3    H138269   4.453   1.922   1.987  1.7841 -2.2835  0.7704
 5570TIP3    H238270   4.467   1.949   1.839 -1.6718 -0.1549  0.7131
 5571TIP3   OH238271   3.026   3.923   8.537  0.3138  0.5326  0.2460
 5571TIP3    H138272   3.099   3.954   8.484  0.6783  1.2575  1.1588
 5571TIP3    H238273   2.987   4.002   8.573  0.2393  0.0396  1.2717
 5572TIP3   OH238274   5.253   5.441   0.777  0.1311 -0.1895 -0.1612
 5572TIP3    H138275   5.202   5.481   0.706 -1.0387  1.3876  1.5005
 5572TIP3    H238276   5.202   5.456   0.856  0.7205 -3.1568  0.9051
 5573TIP3   OH238277   1.454   0.947   0.235  0.2586  0.3749 -0.4397
 5573TIP3    H138278   1.501   0.877   0.280 -1.5635  0.0362  1.0915
 5573TIP3    H238279   1.520   1.015   0.221  1.1894  0.0149  1.7976
 5574TIP3   OH238280   4.178   3.318   8.047  0.2911  0.0702 -0.1578
 5574TIP3    H138281   4.128   3.261   8.105 -1.5878  0.7304 -1.0720
 5574TIP3    H238282   4.235   3.368   8.106 -0.8142 -0.0217  1.0285
 5575TIP3   OH238283   2.717   0.128   6.922  0.0827 -0.0978 -0.1112
 5575TIP3    H138284   2.624   0.115   6.939 -0.0014 -0.6469 -0.9495
 5575TIP3    H238285   2.725   0.221   6.902 -0.2930 -0.0682 -0.1220
 5576TIP3   OH238286   2.698   2.568   0.340  0.5960  0.1509  0.0566
 5576TIP3    H138287   2.625   2.570   0.401  0.1747  0.9207 -0.4536
 5576TIP3    H238288   2.742   2.652   0.354 -1.0048  1.5240 -2.4586
 5577TIP3   OH238289   3.962   2.000   0.120 -0.8481  0.2091 -0.0953
 5577TIP3    H138290   3.905   1.960   0.185 -0.2923  0.7649  0.7538
 5577TIP3    H238291   3.904   2.055   0.067 -1.2134  0.2013  0.2936
 5578TIP3   OH238292   5.026   1.947   2.475 -0.1182  0.2182 -0.1606
 5578TIP3    H138293   4.986   1.942   2.562 -1.4112  1.0772 -0.6876
 5578TIP3    H238294   5.009   2.036   2.445  1.0473  0.1935 -0.9638
 5579TIP3   OH238295   5.185   2.022   6.751  0.1634 -0.2863 -0.9186
 5579TIP3    H138296   5.239   1.976   6.687 -1.0225 -1.7249 -0.9616
 5579TIP3    H238297   5.127   2.077   6.699 -0.0399 -0.6022 -1.0311
 5580TIP3   OH238298   1.021   4.262   1.919  0.1274 -0.0662  0.2432
 5580TIP3    H138299   0.945   4.310   1.887  0.5051  0.3046 -0.1011
 5580TIP3    H238300   0.991   4.222   2.001 -0.1009  0.9975  0.6963
 5581TIP3   OH238301   2.791   6.186   0.766 -0.1607  0.4325 -0.6441
 5581TIP3    H138302   2.746   6.172   0.682  0.9490 -1.4746 -0.9708
 5581TIP3    H238303   2.884   6.184   0.744  0.2217 -1.9304  0.8238
 5582TIP3   OH238304   2.581   4.332   1.453  0.2877  0.5964  0.2362
 5582TIP3    H138305   2.552   4.377   1.532 -0.4419 -0.6845  0.7158
 5582TIP3    H238306   2.599   4.242   1.481  1.7594  0.5546 -0.6947
 5583TIP3   OH238307   4.291   4.858   1.523  0.9109  0.1186 -0.0207
 5583TIP3    H138308   4.262   4.767   1.515 -1.8672  1.0146 -1.8508
 5583TIP3    H238309   4.291   4.875   1.617  0.9780 -1.6006  0.3260
 5584TIP3   OH238310   0.277   6.511   7.842 -0.6569 -0.4041 -0.1805
 5584TIP3    H138311   0.240   6.540   7.925 -1.0579  0.8781 -0.7933
 5584TIP3    H238312   0.355   6.462   7.867 -0.6885  0.0891  0.9394
 5585TIP3   OH238313   0.742   5.402   2.948 -0.2160 -0.2426 -0.0423
 5585TIP3    H138314   0.761   5.334   3.012  1.0903  0.7588  0.6670
 5585TIP3    H238315   0.694   5.469   2.997  0.3644  0.3105 -0.2233
 5586TIP3   OH238316   0.363   0.837   0.815 -0.3065  0.4764 -0.4827
 5586TIP3    H138317   0.364   0.857   0.909  1.4291 -0.4080 -0.2734
 5586TIP3    H238318   0.282   0.876   0.783  0.2801  3.0610  0.8850
 5587TIP3   OH238319   1.642   0.286   8.247  0.3137 -0.0067  0.2170
 5587TIP3    H138320   1.700   0.354   8.283  0.4260 -0.8634  1.7336
 5587TIP3    H238321   1.701   0.213   8.226 -0.1095 -0.5916  1.0323
 5588TIP3   OH238322   5.635   1.807   1.967  0.0797  0.3532 -0.6651
 5588TIP3    H138323   5.616   1.867   2.039  0.4473  0.6923 -0.8458
 5588TIP3    H238324   5.631   1.720   2.006 -2.8797  0.2765 -0.8719
 5589TIP3   OH238325   1.871   1.875   1.676  0.1756  0.2692  0.1311
 5589TIP3    H138326   1.929   1.905   1.746  2.1706 -2.1946 -0.3309
 5589TIP3    H238327   1.877   1.943   1.609  1.1298  0.8935  0.8226
 5590TIP3   OH238328   4.740   1.579   7.533  0.3489  0.0358 -0.0228
 5590TIP3    H138329   4.646   1.560   7.536 -0.0666  1.9024  0.2604
 5590TIP3    H238330   4.779   1.502   7.493 -1.4811 -0.2233 -1.4299
 5591TIP3   OH238331   1.506   5.145   1.234  0.0324  0.3191 -0.1817
 5591TIP3    H138332   1.419   5.184   1.236 -0.8286 -1.0443 -3.4934
 5591TIP3    H238333   1.540   5.169   1.147  2.0727 -0.9385  0.2143
 5592TIP3   OH238334   4.167   6.397   7.377  0.0197  0.0204  0.4673
 5592TIP3    H138335   4.261   6.415   7.374 -0.0577  0.7373  1.6407
 5592TIP3    H238336   4.132   6.440   7.299  0.3751  1.7988  1.2315
 5593TIP3   OH238337   4.013   2.551   1.189  0.8310  0.1703 -0.4420
 5593TIP3    H138338   4.046   2.467   1.159  2.2047  1.0592 -1.6040
 5593TIP3    H238339   4.002   2.603   1.109 -0.7890  0.8302  0.1740
 5594TIP3   OH238340   6.333   5.652   2.189  0.4329  0.2409  0.0077
 5594TIP3    H138341   6.374   5.650   2.276  2.8991 -0.7145 -1.0940
 5594TIP3    H238342   6.374   5.726   2.145  1.3229 -0.9500 -1.2518
 5595TIP3   OH238343   1.365   4.307   1.130  0.1049 -0.3063 -0.7354
 5595TIP3    H138344   1.330   4.362   1.060 -0.9888 -2.4233 -1.9750
 5595TIP3    H238345   1.301   4.315   1.201  0.5069  0.8018 -0.4888
 5596TIP3   OH238346   0.323   2.066   1.787  0.1042  0.6952  0.2347
 5596TIP3    H138347   0.309   1.991   1.728 -1.7021  0.5406  0.8170
 5596TIP3    H238348   0.300   2.142   1.735  0.3586  0.7206  0.1566
 5597TIP3   OH238349   1.129   6.473   0.947  0.2680 -0.2981  0.4304
 5597TIP3    H138350   1.087   6.456   0.863  0.6870 -0.7582  0.3118
 5597TIP3    H238351   1.056   6.481   1.009 -0.1093  1.3158 -0.1778
 5598TIP3   OH238352   3.467   5.170   1.334 -0.0191 -0.1375  0.2135
 5598TIP3    H138353   3.404   5.218   1.388  3.2096  1.8598  2.5978
 5598TIP3    H238354   3.453   5.078   1.357 -0.0284  0.5101  3.2179
 5599TIP3   OH238355   4.313   4.743   2.228 -0.8056 -0.1675 -0.3373
 5599TIP3    H138356   4.311   4.828   2.274 -1.5406 -1.2608  1.7959
 5599TIP3    H238357   4.380   4.754   2.161  0.9670  1.3269  1.5276
 5600TIP3   OH238358   4.508   4.417   2.189  0.5992 -0.6885 -0.2535
 5600TIP3    H138359   4.548   4.406   2.275 -0.9161  1.5242  0.8404
 5600TIP3    H238360   4.514   4.511   2.172  0.8045 -1.0720 -2.5633
 5601TIP3   OH238361   0.507   2.856   6.820  0.1051 -0.0243  0.2961
 5601TIP3    H138362   0.504   2.952   6.826  0.1088  0.0191 -0.3280
 5601TIP3    H238363   0.592   2.837   6.781  0.6062 -0.3507  1.5115
 5602TIP3   OH238364   1.091   5.235   0.926 -0.1181 -0.5116 -0.6661
 5602TIP3    H138365   1.048   5.256   0.843 -1.3798 -0.0397  0.0741
 5602TIP3    H238366   1.094   5.319   0.973 -0.0758 -0.9084  0.0477
 5603TIP3   OH238367   0.561   2.580   0.658  0.4619  0.3824  0.0705
 5603TIP3    H138368   0.489   2.625   0.701 -0.9500 -1.5474 -0.1632
 5603TIP3    H238369   0.570   2.497   0.706  0.3682 -0.8058 -1.8552
 5604TIP3   OH238370   4.526   6.457   2.129 -0.0837 -0.0185 -0.2154
 5604TIP3    H138371   4.499   6.406   2.053 -0.4391  0.1150 -0.1777
 5604TIP3    H238372   4.469   6.534   2.129 -1.5994 -1.0549  1.4226
 5605TIP3   OH238373   3.353   4.262   7.015 -0.4368  0.5919 -0.2006
 5605TIP3    H138374   3.268   4.286   7.050 -1.2813 -1.4757 -0.7035
 5605TIP3    H238375   3.402   4.230   7.091 -0.7523  0.1204 -0.1903
 5606TIP3   OH238376   4.905   2.531   7.530  0.3765 -0.1532  0.0635
 5606TIP3    H138377   4.904   2.550   7.624 -0.6264 -1.7487  0.4087
 5606TIP3    H238378   4.858   2.605   7.491  1.4283  0.8974  0.7081
 5607TIP3   OH238379   1.609   5.225   0.955  0.0937  0.3951 -0.7621
 5607TIP3    H138380   1.700   5.234   0.984 -0.4087 -0.3655  1.1775
 5607TIP3    H238381   1.585   5.313   0.924  1.1674  0.8484 -0.3615
 5608TIP3   OH238382   5.322   6.377   6.685  0.2143 -0.1357 -0.0065
 5608TIP3    H138383   5.325   6.466   6.648  0.8651 -0.6033 -1.1462
 5608TIP3    H238384   5.229   6.358   6.696 -0.1043 -0.4679 -2.7230
 5609TIP3   OH238385   1.430   6.658   8.432 -0.3598 -0.1557  0.6501
 5609TIP3    H138386   1.475   6.623   8.508 -1.1422 -2.1858  0.2254
 5609TIP3    H238387   1.486   6.636   8.358 -0.8963 -0.6141  0.3694
 5610TIP3   OH238388   0.341   0.329   2.046  0.3578  0.0749  0.5083
 5610TIP3    H138389   0.252   0.348   2.075  0.6773 -0.3890  1.8760
 5610TIP3    H238390   0.376   0.271   2.114  1.3116 -0.6998 -0.6099
 5611TIP3   OH238391   1.604   1.700   0.232  0.3604  0.2765 -0.4412
 5611TIP3    H138392   1.566   1.643   0.299  1.2604  0.1849  0.0147
 5611TIP3    H238393   1.676   1.745   0.277 -0.4384  1.9304 -0.7306
 5612TIP3   OH238394   2.573   5.632   2.060  0.4878  0.0211 -0.8650
 5612TIP3    H138395   2.544   5.583   1.983  2.4577  0.4270 -1.9361
 5612TIP3    H238396   2.532   5.588   2.134  0.4926 -1.9296 -1.9682
 5613TIP3   OH238397   5.899   1.844   7.172  0.0416  0.4023 -0.6104
 5613TIP3    H138398   5.856   1.916   7.127  0.0144  0.6015 -0.2725
 5613TIP3    H238399   5.980   1.881   7.207  0.2562  0.1499 -0.8367
 5614TIP3   OH238400   1.686   0.757   0.938 -0.2242 -0.6047 -0.2372
 5614TIP3    H138401   1.625   0.740   0.867 -1.2721  1.9529 -0.0327
 5614TIP3    H238402   1.767   0.785   0.894 -0.0925 -1.3003 -0.4483
 5615TIP3   OH238403   5.612   6.664   2.070  0.2167  1.0474 -0.0099
 5615TIP3    H138404   5.588   6.724   2.140  0.9522  0.1068  1.0844
 5615TIP3    H238405   5.671   6.715   2.014  2.0102  0.9492  1.7028
 5616TIP3   OH238406   6.647   4.646   0.222  0.2163 -0.4281 -0.2456
 5616TIP3    H138407   6.608   4.664   0.136 -0.1202  2.2160  0.3801
 5616TIP3    H238408   6.675   4.555   0.216 -1.1869 -0.8112 -2.6137
 5617TIP3   OH238409   5.113   1.530   0.201  0.5120  0.4280 -0.6114
 5617TIP3    H138410   5.173   1.467   0.242 -0.0795  0.4190  0.2720
 5617TIP3    H238411   5.058   1.477   0.143  1.1699  0.4001 -1.2310
 5618TIP3   OH238412   6.813   0.489   1.886 -0.3035 -0.4386 -0.2828
 5618TIP3    H138413   6.778   0.452   1.805  0.0554  0.5330 -0.8985
 5618TIP3    H238414   6.818   0.583   1.870 -0.6465 -0.1718  1.0377
 5619TIP3   OH238415   0.903   0.316   1.950 -0.2105  0.3305 -0.5764
 5619TIP3    H138416   0.875   0.224   1.944  1.1802 -0.1242 -0.3735
 5619TIP3    H238417   0.823   0.366   1.932 -1.2911 -0.9063  0.5853
 5620TIP3   OH238418   3.955   4.208   7.364  0.5071  0.1996 -0.3665
 5620TIP3    H138419   3.946   4.277   7.298 -1.0593  0.3232 -0.0544
 5620TIP3    H238420   3.901   4.136   7.331 -2.0156  1.0073  1.7148
 5621TIP3   OH238421   5.871   2.721   7.966  0.0378 -0.6368 -0.2294
 5621TIP3    H138422   5.791   2.672   7.987 -0.2992  0.0844  0.2131
 5621TIP3    H238423   5.864   2.802   8.018  0.1161  0.3160 -1.6349
 5622TIP3   OH238424   1.737   1.986   2.590  0.2009 -0.3999  0.3746
 5622TIP3    H138425   1.702   1.947   2.510  0.2278 -1.1949  0.7451
 5622TIP3    H238426   1.695   1.937   2.661  0.4587  0.0518  0.8454
 5623TIP3   OH238427   4.558   5.473   1.095 -0.9328 -0.0396  0.2504
 5623TIP3    H138428   4.639   5.513   1.125 -0.0888 -2.0705  0.8475
 5623TIP3    H238429   4.565   5.472   1.000  0.7103 -1.9488  0.3227
 5624TIP3   OH238430   3.550   3.977   7.216  0.2952 -0.2658 -0.1825
 5624TIP3    H138431   3.459   3.946   7.212  0.6406 -1.1252 -2.0968
 5624TIP3    H238432   3.581   3.974   7.126  3.2033 -2.9831  0.7170
 5625TIP3   OH238433   0.746   2.646   7.623  0.6797  0.2933  0.2747
 5625TIP3    H138434   0.709   2.725   7.662  0.6597  0.5118 -0.1834
 5625TIP3    H238435   0.691   2.629   7.547  0.1797 -0.6282  0.8322
 5626TIP3   OH238436   6.049   0.556   2.700  0.6632 -0.2385  0.2143
 5626TIP3    H138437   6.107   0.546   2.776 -0.4931 -1.0520  1.0154
 5626TIP3    H238438   5.979   0.493   2.715  0.9528 -1.1899 -2.0718
 5627TIP3   OH238439   4.293   4.903   2.862  0.0349 -0.6891  0.3753
 5627TIP3    H138440   4.211   4.944   2.887  0.5491  1.3320 -1.0211
 5627TIP3    H238441   4.326   4.862   2.943 -1.2610  0.3407  1.4594
 5628TIP3   OH238442   1.786   0.388   2.373 -0.0115  1.1249  0.2241
 5628TIP3    H138443   1.792   0.369   2.280  0.8487  1.1736  0.2619
 5628TIP3    H238444   1.729   0.465   2.378  0.6638  1.6907 -0.3493
 5629TIP3   OH238445   5.283   3.296   7.872 -0.2046 -0.5797 -0.2654
 5629TIP3    H138446   5.283   3.318   7.779 -0.7157  0.4773 -0.0342
 5629TIP3    H238447   5.350   3.353   7.910 -1.8457  1.0019  0.4177
 5630TIP3   OH238448   4.580   4.101   8.390 -0.3977 -0.2623  0.3508
 5630TIP3    H138449   4.630   4.019   8.392  0.2173  0.0717 -0.7434
 5630TIP3    H238450   4.613   4.151   8.465  0.5428 -0.2719 -0.0393
 5631TIP3   OH238451   2.181   4.606   0.042  0.0654 -0.0540 -0.0053
 5631TIP3    H138452   2.128   4.679   0.010  0.8849  0.0149 -1.2367
 5631TIP3    H238453   2.244   4.647   0.102 -0.1494  0.1019  0.1152
 5632TIP3   OH238454   4.033   1.229   0.472 -0.7323  0.5453  0.0421
 5632TIP3    H138455   3.984   1.214   0.391 -0.8074 -0.4737  0.2637
 5632TIP3    H238456   3.967   1.258   0.535 -0.9158 -0.0346  0.1188
 5633TIP3   OH238457   4.089   6.405   8.273 -0.4367  0.3073 -0.0723
 5633TIP3    H138458   4.013   6.450   8.311 -1.9649 -1.5846 -0.7462
 5633TIP3    H238459   4.098   6.441   8.185 -1.1790 -0.1462 -0.3382
 5634TIP3   OH238460   1.389   3.029   2.158  0.3126  0.2111 -0.2557
 5634TIP3    H138461   1.361   2.995   2.243 -1.1605  1.7168 -0.0832
 5634TIP3    H238462   1.316   3.009   2.099  0.3189  1.1736 -0.6148
 5635TIP3   OH238463   6.831   3.311   2.516  0.0408  0.0488 -0.3958
 5635TIP3    H138464   6.794   3.244   2.459 -1.3972  0.3084  0.1795
 5635TIP3    H238465   6.788   3.296   2.601 -2.4958  3.3313 -0.9021
 5636TIP3   OH238466   0.698   4.484   1.035  0.5756  0.2594  0.1200
 5636TIP3    H138467   0.693   4.525   0.948  0.3615  2.4375  1.0859
 5636TIP3    H238468   0.607   4.464   1.057  0.1430  3.0347  1.2499
 5637TIP3   OH238469   0.648   0.695   7.034  0.3631 -0.0191 -0.3277
 5637TIP3    H138470   0.639   0.621   6.975 -1.2418 -0.3217  0.2465
 5637TIP3    H238471   0.671   0.769   6.977 -0.1648 -0.5103 -1.2031
 5638TIP3   OH238472   1.668   6.726   1.415  0.7491 -0.6645  0.4809
 5638TIP3    H138473   1.719   6.794   1.461  1.4744 -0.6625 -0.3051
 5638TIP3    H238474   1.694   6.735   1.324 -0.8735 -0.5045  0.0141
 5639TIP3   OH238475   3.902   0.213   8.172 -0.1969 -0.0277 -0.2755
 5639TIP3    H138476   3.869   0.290   8.219 -0.5703 -0.1703 -0.3015
 5639TIP3    H238477   3.942   0.159   8.240 -0.1259  0.0883 -0.2244
 5640TIP3   OH238478   1.549   4.960   8.197  0.7484  0.1861 -0.2683
 5640TIP3    H138479   1.501   5.005   8.128  0.6036 -0.7403 -0.7851
 5640TIP3    H238480   1.567   5.028   8.262 -1.2975  0.5444 -0.0299
 5641TIP3   OH238481   3.852   3.398   0.964  0.5894 -0.0389  0.3442
 5641TIP3    H138482   3.860   3.494   0.965  0.3827 -0.0202  1.7945
 5641TIP3    H238483   3.843   3.374   1.056 -0.6250 -1.3515 -0.0915
 5642TIP3   OH238484   0.787   4.328   2.399 -0.0048 -0.3131  0.2275
 5642TIP3    H138485   0.697   4.347   2.376 -0.0812 -0.0372  0.7306
 5642TIP3    H238486   0.827   4.414   2.415 -0.0250 -0.4815  1.3088
 5643TIP3   OH238487   1.444   2.825   7.744 -0.8140 -0.0088 -0.4505
 5643TIP3    H138488   1.427   2.887   7.673 -1.2500  0.9555  0.4676
 5643TIP3    H238489   1.531   2.790   7.724 -0.1457  1.5792 -0.5516
 5644TIP3   OH238490   6.902   2.466   7.605  0.2008  0.3027  0.1735
 5644TIP3    H138491   6.957   2.533   7.645 -0.1475  1.2033 -0.8426
 5644TIP3    H238492   6.848   2.513   7.542 -0.2633 -0.8902 -0.3405
 5645TIP3   OH238493   0.138   6.310   2.583  0.0484 -0.2319 -0.1874
 5645TIP3    H138494   0.086   6.323   2.662  0.9476  2.9798  0.0225
 5645TIP3    H238495   0.189   6.230   2.601  0.0286  0.2325  2.3850
 5646TIP3   OH238496   6.028   5.252   0.483 -0.0221  0.2393 -0.0022
 5646TIP3    H138497   6.102   5.267   0.541 -0.4797  0.0079  0.6561
 5646TIP3    H238498   6.058   5.185   0.422  0.6092  0.7989 -0.3183
 5647TIP3   OH238499   3.142   5.093   8.551  0.0698 -0.2150 -0.0778
 5647TIP3    H138500   3.202   5.168   8.550 -0.4762  0.2382  0.3793
 5647TIP3    H238501   3.172   5.040   8.625  1.2082 -1.0957 -1.1249
 5648TIP3   OH238502   4.872   2.506   0.043 -0.3200 -0.9934 -0.0068
 5648TIP3    H138503   4.925   2.437   0.083  1.3649  1.7181  2.9279
 5648TIP3    H238504   4.936   2.572   0.016 -1.9608  0.4124 -0.5927
 5649TIP3   OH238505   2.724   3.330   8.399 -0.2129  0.3259 -0.5710
 5649TIP3    H138506   2.735   3.421   8.426 -1.1304  0.4453 -0.5723
 5649TIP3    H238507   2.739   3.279   8.479 -1.3463  0.5829 -0.1810
 5650TIP3   OH238508   3.821   6.250   1.462 -0.2290  0.2326  0.9100
 5650TIP3    H138509   3.728   6.264   1.444 -0.3295  0.2557  1.4192
 5650TIP3    H238510   3.865   6.274   1.381 -0.8058 -1.5443  0.0205
 5651TIP3   OH238511   2.459   5.366   1.565  0.2487 -1.3630  0.2919
 5651TIP3    H138512   2.369   5.364   1.597 -0.0603 -4.1162 -0.4385
 5651TIP3    H238513   2.466   5.288   1.510  2.1096  0.5387 -2.4680
 5652TIP3   OH238514   4.158   3.448   7.790 -0.2520 -0.0687 -0.1600
 5652TIP3    H138515   4.250   3.450   7.765  0.0704  1.6895  0.9700
 5652TIP3    H238516   4.154   3.388   7.865  0.1888  0.6410  0.4482
 5653TIP3   OH238517   4.230   3.175   2.111 -0.3889 -0.0354  0.0747
 5653TIP3    H138518   4.230   3.131   2.026  2.1761  0.0548 -0.0384
 5653TIP3    H238519   4.138   3.172   2.139 -1.4145  0.3920 -2.8878
 5654TIP3   OH238520   5.847   6.239   8.480  0.0159 -0.2854 -0.2486
 5654TIP3    H138521   5.754   6.226   8.466 -0.1190 -1.5283  1.4407
 5654TIP3    H238522   5.890   6.167   8.434  0.0638 -0.3762 -0.0619
 5655TIP3   OH238523   3.501   3.425   0.181  0.1758  0.6214 -0.4348
 5655TIP3    H138524   3.564   3.489   0.213  0.0465  0.4447  0.1915
 5655TIP3    H238525   3.525   3.410   0.090  0.0987  1.6944 -0.6418
 5656TIP3   OH238526   6.655   1.334   0.764 -0.2258 -0.0083  0.0733
 5656TIP3    H138527   6.563   1.339   0.790  0.2328 -2.7591  2.8581
 5656TIP3    H238528   6.692   1.418   0.792 -1.3764  0.0998  1.4223
 5657TIP3   OH238529   3.278   2.490   1.262  0.7034 -0.0904 -0.3183
 5657TIP3    H138530   3.326   2.434   1.201  0.7999  0.0432 -0.3663
 5657TIP3    H238531   3.217   2.539   1.208 -0.4777 -1.2741 -0.0899
 5658TIP3   OH238532   0.360   2.747   0.648  0.4063 -0.1807  0.2886
 5658TIP3    H138533   0.308   2.686   0.595 -2.1870  0.2728  2.1480
 5658TIP3    H238534   0.338   2.833   0.614  2.6485 -0.0763 -1.1086
 5659TIP3   OH238535   0.852   0.442   6.827  0.1912  0.0237  0.8825
 5659TIP3    H138536   0.889   0.527   6.850  0.3110  0.0556  0.5782
 5659TIP3    H238537   0.922   0.380   6.847  0.2644  0.0426  0.6865
 5660TIP3   OH238538   0.314   5.797   8.576 -0.5850  0.1576  0.6434
 5660TIP3    H138539   0.236   5.767   8.530 -0.0269  0.5569 -0.6086
 5660TIP3    H238540   0.291   5.883   8.610 -0.0282  1.3055 -1.6686
 5661TIP3   OH238541   2.319   0.965   2.365 -0.0606  0.0856 -0.1191
 5661TIP3    H138542   2.349   1.024   2.434 -1.3908  0.3657  0.2628
 5661TIP3    H238543   2.289   1.023   2.295  0.7370 -0.1874 -0.6911
 5662TIP3   OH238544   6.546   4.500   2.976  0.4609 -0.2661 -0.2317
 5662TIP3    H138545   6.633   4.474   2.947  0.6049  0.3195 -0.3302
 5662TIP3    H238546   6.487   4.462   2.911  0.7069  0.0923 -0.6684
 5663TIP3   OH238547   2.447   6.650   7.569  0.1002  0.2252  0.0251
 5663TIP3    H138548   2.478   6.561   7.583 -0.1558 -0.0783 -1.2100
 5663TIP3    H238549   2.478   6.672   7.481  0.8943  1.6802  0.6335
 5664TIP3   OH238550   3.427   6.141   0.124 -0.1770  0.2697  0.0685
 5664TIP3    H138551   3.481   6.217   0.144 -0.8339  1.0189 -0.8372
 5664TIP3    H238552   3.399   6.156   0.033  0.5549 -1.6040 -0.5086
 5665TIP3   OH238553   0.206   1.309   1.765  0.2026  0.0760 -0.1410
 5665TIP3    H138554   0.163   1.364   1.700 -1.3695 -1.7699 -0.7642
 5665TIP3    H238555   0.285   1.278   1.722 -0.6706 -0.8841 -1.1151
 5666TIP3   OH238556   6.283   0.981   0.759  0.6679  0.1357  0.2015
 5666TIP3    H138557   6.213   1.036   0.794  0.6109 -0.1801  0.5793
 5666TIP3    H238558   6.261   0.972   0.666  0.6902  0.7700  0.1271
 5667TIP3   OH238559   4.635   6.066   7.046 -0.1593  0.3052 -0.1324
 5667TIP3    H138560   4.666   6.079   7.136 -1.3821  0.4610  0.2808
 5667TIP3    H238561   4.664   6.145   7.000 -1.6200  1.4093  0.7304
 5668TIP3   OH238562   3.801   6.607   7.669  0.2558 -0.4326  0.0385
 5668TIP3    H138563   3.722   6.582   7.621  1.1988 -0.1809 -1.7529
 5668TIP3    H238564   3.815   6.537   7.733 -0.7119 -1.1186 -0.4840
 5669TIP3   OH238565   2.167   6.097   7.065  0.0297 -0.5153  0.4123
 5669TIP3    H138566   2.093   6.078   7.007  1.4572  0.2936 -1.7978
 5669TIP3    H238567   2.192   6.011   7.100 -2.2333 -0.7368  1.6510
 5670TIP3   OH238568   0.444   2.485   2.641 -0.2900  0.3725 -0.6268
 5670TIP3    H138569   0.538   2.497   2.655 -0.0208 -0.6315 -1.4998
 5670TIP3    H238570   0.405   2.493   2.728  0.4944  1.6257 -0.3676
 5671TIP3   OH238571   3.735   0.120   8.547 -0.1138 -0.4062 -0.8834
 5671TIP3    H138572   3.682   0.168   8.483 -0.4012 -0.8445 -0.9814
 5671TIP3    H238573   3.703   0.151   8.632 -0.9588 -1.1034 -0.9289
 5672TIP3   OH238574   3.665   1.963   2.602  0.1343  0.1162 -0.3070
 5672TIP3    H138575   3.619   2.031   2.553 -0.3177  1.3243  1.6742
 5672TIP3    H238576   3.667   1.996   2.692  1.1784 -1.8603  0.4487
 5673TIP3   OH238577   5.452   1.786   0.265  0.3120  0.0583 -0.4613
 5673TIP3    H138578   5.449   1.816   0.356 -0.3552 -1.7364  0.1389
 5673TIP3    H238579   5.444   1.866   0.213 -1.5083  0.9322  1.0655
 5674TIP3   OH238580   6.683   2.923   1.131 -0.4119  0.0146 -0.4051
 5674TIP3    H138581   6.674   2.861   1.202  0.2717  0.0800 -0.2548
 5674TIP3    H238582   6.768   2.903   1.091 -1.1547 -0.5813 -1.7459
 5675TIP3   OH238583   0.635   3.627   1.254 -0.8064  0.1146  0.3504
 5675TIP3    H138584   0.607   3.617   1.163 -1.2504  0.0807  0.4878
 5675TIP3    H238585   0.615   3.542   1.294 -0.9789  0.2623  0.5767
 5676TIP3   OH238586   3.792   5.247   0.786  0.3080  0.1572 -0.0124
 5676TIP3    H138587   3.723   5.306   0.816 -0.8371 -0.4008 -1.4848
 5676TIP3    H238588   3.837   5.220   0.867 -0.5672  1.2715  0.8753
 5677TIP3   OH238589   1.661   6.764   7.859 -0.4312 -0.3110 -0.0974
 5677TIP3    H138590   1.596   6.695   7.869  0.7430 -1.4370  0.0558
 5677TIP3    H238591   1.695   6.753   7.770 -0.7201  0.5276 -0.3225
 5678TIP3   OH238592   3.520   4.286   7.944 -0.6163 -0.6191  0.1933
 5678TIP3    H138593   3.433   4.259   7.916 -0.2682 -0.9618 -0.5896
 5678TIP3    H238594   3.580   4.231   7.893  0.0427 -1.1050  1.4576
 5679TIP3   OH238595   0.303   1.444   0.321 -0.0584 -0.2380  0.4398
 5679TIP3    H138596   0.325   1.355   0.296  1.6403  0.0274  0.8889
 5679TIP3    H238597   0.351   1.460   0.402  0.4111  1.3808 -0.1036
 5680TIP3   OH238598   5.506   6.054   2.556  0.4183 -0.0262 -0.7277
 5680TIP3    H138599   5.552   6.073   2.638 -1.3015  0.2536  0.2368
 5680TIP3    H238600   5.490   5.960   2.559 -1.3791  0.2610  0.2879
 5681TIP3   OH238601   3.649   4.005   2.905 -0.3315  0.4365  0.7558
 5681TIP3    H138602   3.675   4.084   2.858  1.7592 -1.4317 -1.4583
 5681TIP3    H238603   3.709   4.002   2.980  2.2061 -0.8222 -1.1670
 5682TIP3   OH238604   5.975   5.470   7.933 -0.2509  0.2066 -0.7062
 5682TIP3    H138605   5.894   5.520   7.918 -0.8284 -0.8393 -1.2051
 5682TIP3    H238606   6.031   5.493   7.859  0.7412  2.4819  0.6730
 5683TIP3   OH238607   6.868   0.697   2.795 -0.1860  0.7997  0.4885
 5683TIP3    H138608   6.812   0.648   2.734 -2.4219  1.4484  1.9016
 5683TIP3    H238609   6.878   0.639   2.871 -0.1769  1.2785  0.8559
 5684TIP3   OH238610   3.829   3.546   1.428 -0.3539 -0.4366 -0.7740
 5684TIP3    H138611   3.900   3.482   1.433 -0.3983 -0.4150  0.3524
 5684TIP3    H238612   3.873   3.631   1.425 -0.3262 -0.4369 -0.3853
 5685TIP3   OH238613   0.186   4.047   0.351 -0.3365 -0.0633  0.5776
 5685TIP3    H138614   0.213   3.960   0.380 -1.3954 -0.1211  1.4592
 5685TIP3    H238615   0.113   4.029   0.291  0.6129  0.1505 -0.6853
 5686TIP3   OH238616   6.121   6.309   6.977  0.3532  0.3572  0.0883
 5686TIP3    H138617   6.212   6.328   6.955  0.4836 -1.6718 -1.4361
 5686TIP3    H238618   6.071   6.344   6.904  0.3373 -2.0337 -1.1507
 5687TIP3   OH238619   2.170   1.514   0.671 -0.1196  0.2070 -0.0543
 5687TIP3    H138620   2.163   1.421   0.694  0.8292  0.0190 -0.4797
 5687TIP3    H238621   2.081   1.547   0.680 -0.2433 -0.4142  1.4635
 5688TIP3   OH238622   0.483   2.456   6.842  0.0220  1.0547  0.6529
 5688TIP3    H138623   0.564   2.502   6.865  0.6383  1.5930 -2.2092
 5688TIP3    H238624   0.510   2.364   6.833  0.3359  1.2220 -0.2218
 5689TIP3   OH238625   3.292   2.191   1.387 -1.1177 -0.1154 -0.0953
 5689TIP3    H138626   3.256   2.245   1.317 -0.2834 -0.6238 -0.9313
 5689TIP3    H238627   3.227   2.122   1.400 -0.5245 -0.9940 -1.5570
 5690TIP3   OH238628   1.217   5.094   2.903 -0.1356 -0.4105  0.5743
 5690TIP3    H138629   1.142   5.099   2.962  1.2663 -0.9682  2.4937
 5690TIP3    H238630   1.293   5.113   2.958  1.1382  0.7241 -1.4080
 5691TIP3   OH238631   4.815   5.377   2.223 -0.1956 -0.2470  0.1197
 5691TIP3    H138632   4.768   5.320   2.284 -0.5667  0.2567  0.3089
 5691TIP3    H238633   4.817   5.462   2.266  1.2321 -0.3284  0.2941
 5692TIP3   OH238634   3.764   4.289   7.167  0.0685  0.0180  0.1849
 5692TIP3    H138635   3.685   4.342   7.158 -0.6943 -0.3777  3.4845
 5692TIP3    H238636   3.755   4.221   7.100 -0.5437  2.0590 -1.9131
 5693TIP3   OH238637   5.302   3.003   1.502 -0.7640 -0.5260  0.6119
 5693TIP3    H138638   5.241   3.007   1.428 -0.3884 -0.9660  0.2684
 5693TIP3    H238639   5.317   3.095   1.526  1.8947 -0.0656 -2.2098
 5694TIP3   OH238640   5.745   4.578   0.836 -0.5280 -0.3579 -0.2202
 5694TIP3    H138641   5.703   4.529   0.765  0.5986 -3.9591  1.3444
 5694TIP3    H238642   5.837   4.581   0.812 -0.4042 -0.0597  0.2778
 5695TIP3   OH238643   2.695   2.686   0.686 -0.6051 -0.6758 -0.0589
 5695TIP3    H138644   2.760   2.754   0.706  0.2320 -0.3323 -3.2866
 5695TIP3    H238645   2.611   2.727   0.703 -0.0537  0.4820 -0.0004
 5696TIP3   OH238646   3.976   6.162   7.775  0.0524 -0.3297  0.0391
 5696TIP3    H138647   4.051   6.176   7.834  0.3156 -1.7602  0.0849
 5696TIP3    H238648   3.987   6.228   7.707  2.0439 -1.2179 -0.5834
 5697TIP3   OH238649   5.432   6.500   0.822 -0.3199  0.1107  0.3901
 5697TIP3    H138650   5.422   6.489   0.727 -0.8227 -0.8334  0.5440
 5697TIP3    H238651   5.515   6.547   0.832  1.5567 -2.7706 -0.4028
 5698TIP3   OH238652   5.662   4.246   2.586  0.3826 -0.2733 -0.1575
 5698TIP3    H138653   5.732   4.201   2.540 -1.2286 -2.6282 -0.4857
 5698TIP3    H238654   5.589   4.247   2.524 -1.5981 -2.8373  1.8662
 5699TIP3   OH238655   1.773   3.755   7.857  0.0303 -0.7043  0.6974
 5699TIP3    H138656   1.759   3.671   7.901  0.9796 -1.6234 -0.6540
 5699TIP3    H238657   1.686   3.793   7.849 -0.6206 -2.2262  0.1062
 5700TIP3   OH238658   2.767   4.346   1.046  0.4380  0.2410  0.0222
 5700TIP3    H138659   2.799   4.409   1.110 -4.1074  0.2348  2.7439
 5700TIP3    H238660   2.709   4.397   0.989 -0.7708 -0.8690  0.2111
 5701TIP3   OH238661   1.799   0.004   0.161  0.2146 -0.3524  0.1565
 5701TIP3    H138662   1.751  -0.047   0.225 -1.3495 -0.6542 -1.1922
 5701TIP3    H238663   1.770   0.094   0.174 -2.5231 -0.7932 -2.0476
 5702TIP3   OH238664   5.917   5.376   8.227  0.3196  0.5338 -0.0627
 5702TIP3    H138665   5.918   5.408   8.137 -0.0517  0.9460  0.0772
 5702TIP3    H238666   5.943   5.284   8.221 -1.9159 -0.1062 -0.8377
 5703TIP3   OH238667   5.603   6.552   8.460  0.1546  0.0859 -0.3337
 5703TIP3    H138668   5.569   6.488   8.398 -1.7493  0.2663  0.4513
 5703TIP3    H238669   5.655   6.613   8.407 -0.2977 -0.5375 -1.5090
 5704TIP3   OH238670   5.053   5.574   2.673 -0.2614  0.5984 -0.8678
 5704TIP3    H138671   5.134   5.553   2.628 -0.5758 -2.0650 -0.3788
 5704TIP3    H238672   5.050   5.514   2.747 -0.5967  3.6425  1.8273
 5705TIP3   OH238673   4.298   5.176   7.602 -0.1451 -0.0055 -0.0219
 5705TIP3    H138674   4.226   5.151   7.660  0.2889 -0.4835  0.3248
 5705TIP3    H238675   4.312   5.099   7.547 -0.0008  0.1435 -0.1957
 5706TIP3   OH238676   2.859   0.935   2.178  0.1369 -0.6427  0.4200
 5706TIP3    H138677   2.886   0.853   2.219 -0.4987 -1.2488 -0.3341
 5706TIP3    H238678   2.832   0.991   2.251  0.5164 -1.1280  0.9366
 5707TIP3   OH238679   4.358   2.191   2.687 -0.3813 -0.3204  0.5159
 5707TIP3    H138680   4.372   2.246   2.610  2.0103 -0.7746  0.5510
 5707TIP3    H238681   4.293   2.238   2.739  0.1961  1.5213 -0.3591
 5708TIP3   OH238682   2.861   3.428   1.741  0.1781  0.6897 -0.5951
 5708TIP3    H138683   2.877   3.380   1.822 -0.4631 -0.0091 -0.8622
 5708TIP3    H238684   2.783   3.480   1.760  0.3621  0.9591 -0.5816
 5709TIP3   OH238685   3.630   0.849   1.879 -0.4006  0.0167 -0.2213
 5709TIP3    H138686   3.559   0.855   1.814  0.1780 -0.9310 -0.9800
 5709TIP3    H238687   3.591   0.801   1.952 -0.6087 -0.3222 -0.5484
 5710TIP3   OH238688   0.435   2.959   7.950  0.0283 -0.4086 -0.0534
 5710TIP3    H138689   0.377   3.033   7.931 -0.9411 -1.3031 -0.6889
 5710TIP3    H238690   0.502   2.995   8.008 -0.4599  0.9479 -0.3012
 5711TIP3   OH238691   0.713   2.520   2.722 -0.4875 -0.4456  0.0089
 5711TIP3    H138692   0.765   2.473   2.787 -0.0549 -0.3371 -0.2536
 5711TIP3    H238693   0.761   2.602   2.708  0.1632 -1.0361 -1.4356
 5712TIP3   OH238694   6.315   0.615   0.565  0.2894 -0.1634 -0.4685
 5712TIP3    H138695   6.400   0.593   0.527  1.1685 -1.2524  1.9020
 5712TIP3    H238696   6.292   0.700   0.526  3.4496  1.1784  0.2319
 5713TIP3   OH238697   6.302   4.289   8.130  0.2294  0.2453 -0.3559
 5713TIP3    H138698   6.316   4.218   8.193  0.0901  0.4775 -0.0578
 5713TIP3    H238699   6.361   4.359   8.159 -1.2273  1.0984  0.7077
 5714TIP3   OH238700   5.000   5.261   1.631 -0.7793 -0.0520 -1.0194
 5714TIP3    H138701   4.958   5.198   1.690 -0.6755 -0.0276 -0.9183
 5714TIP3    H238702   5.082   5.284   1.675 -0.6189 -0.1652 -1.2611
 5715TIP3   OH238703   5.412   2.783   0.391 -0.1861  0.1349 -0.1322
 5715TIP3    H138704   5.437   2.867   0.352  0.9729  0.0038  0.2738
 5715TIP3    H238705   5.489   2.757   0.443 -1.0703 -0.4735  0.9215
 5716TIP3   OH238706   2.276   5.189   2.700  0.0073 -0.1221 -0.4430
 5716TIP3    H138707   2.251   5.267   2.751 -0.0765 -0.1651 -0.4177
 5716TIP3    H238708   2.264   5.215   2.609  0.6126  0.1136 -0.4617
 5717TIP3   OH238709   3.654   0.752   6.879 -0.2212  0.5114 -0.7579
 5717TIP3    H138710   3.591   0.702   6.931  1.7128 -0.6230  0.6302
 5717TIP3    H238711   3.624   0.843   6.885 -1.1428  0.1368  0.7007
 5718TIP3   OH238712   4.785   2.917   0.784 -0.5189  0.1166  0.0506
 5718TIP3    H138713   4.715   2.967   0.742  0.2546  0.2036 -1.2141
 5718TIP3    H238714   4.832   2.980   0.838 -0.9509  0.2281  0.2959
 5719TIP3   OH238715   2.139   0.747   7.443 -0.2495  0.0871 -0.3405
 5719TIP3    H138716   2.204   0.683   7.471  1.4994  1.8725 -0.0516
 5719TIP3    H238717   2.188   0.806   7.386 -1.9656  0.7692 -1.1662
 5720TIP3   OH238718   6.746   6.245   0.715  0.1615  0.5157  0.3063
 5720TIP3    H138719   6.674   6.251   0.652  1.4823 -0.0821 -1.3562
 5720TIP3    H238720   6.704   6.223   0.798 -1.7480  2.2764 -0.1194
 5721TIP3   OH238721   5.789   3.236   7.659 -0.0744 -0.4267 -0.2801
 5721TIP3    H138722   5.720   3.233   7.725 -1.7443  0.6814 -1.8630
 5721TIP3    H238723   5.824   3.325   7.664  1.0506 -0.8756  0.2730
 5722TIP3   OH238724   4.758   4.860   7.852  0.3666  0.0793 -0.4948
 5722TIP3    H138725   4.746   4.954   7.838  2.0957  0.9039  2.5788
 5722TIP3    H238726   4.692   4.837   7.917  0.7776 -0.5430 -0.2957
 5723TIP3   OH238727   5.027   5.633   7.161 -0.0333  0.0029 -0.2684
 5723TIP3    H138728   4.950   5.596   7.116  0.1170  0.8950 -1.3097
 5723TIP3    H238729   5.090   5.648   7.091  1.3313 -1.2362  0.6527
 5724TIP3   OH238730   3.649   3.082   0.108  0.5275 -0.0001  0.0966
 5724TIP3    H138731   3.695   3.072   0.024  0.8050  1.2174  0.0871
 5724TIP3    H238732   3.556   3.086   0.084  0.3845 -2.2119  0.0926
 5725TIP3   OH238733   6.141   4.377   0.824  0.1661 -0.1018  0.2910
 5725TIP3    H138734   6.176   4.446   0.881 -2.0299  1.0731  0.3031
 5725TIP3    H238735   6.174   4.400   0.737  1.3241 -0.3858  0.6268
 5726TIP3   OH238736   1.115   6.846   7.370  0.5712 -0.3384 -0.1504
 5726TIP3    H138737   1.104   6.941   7.373 -0.2439 -0.3484 -1.6436
 5726TIP3    H238738   1.164   6.830   7.290 -0.2359 -1.2278 -0.4926
 5727TIP3   OH238739   1.361   2.422   8.011 -0.0281  0.2560 -0.3893
 5727TIP3    H138740   1.335   2.470   7.932 -0.3031 -0.8699 -1.0090
 5727TIP3    H238741   1.278   2.405   8.056  0.1371  0.9789  0.2107
 5728TIP3   OH238742   4.354   3.949   1.875  0.0687 -0.6443  0.1611
 5728TIP3    H138743   4.290   3.911   1.816  0.8425 -2.3562  0.3736
 5728TIP3    H238744   4.354   4.042   1.853 -0.1087 -1.1156 -2.1020
 5729TIP3   OH238745   1.699   2.250   2.474 -0.4927 -0.1066  0.0900
 5729TIP3    H138746   1.687   2.161   2.507 -0.3810 -0.8576 -1.7724
 5729TIP3    H238747   1.669   2.246   2.384  0.9611  1.3684 -0.5043
 5730TIP3   OH238748   6.585   1.359   7.988  0.5000 -0.5688 -0.3562
 5730TIP3    H138749   6.655   1.395   8.042  0.4643 -1.0558  0.0224
 5730TIP3    H238750   6.607   1.266   7.980  0.6959 -0.4415 -1.4792
 5731TIP3   OH238751   3.140   4.457   7.444  0.1503 -0.2409 -0.1649
 5731TIP3    H138752   3.053   4.481   7.478  0.0744  1.5679 -1.5037
 5731TIP3    H238753   3.200   4.483   7.514 -0.2843 -0.4327  0.2946
 5732TIP3   OH238754   3.863   2.801   8.289 -0.2236 -0.4004 -0.0093
 5732TIP3    H138755   3.834   2.767   8.204 -0.2675 -0.2103 -0.0713
 5732TIP3    H238756   3.857   2.896   8.279  2.9974 -0.1933 -0.9470
 5733TIP3   OH238757   3.267   6.346   1.464 -0.1866  0.6500  0.3054
 5733TIP3    H138758   3.304   6.427   1.498  0.9216  0.8706 -1.3057
 5733TIP3    H238759   3.279   6.283   1.536  2.4609  0.9805  0.2713
 5734TIP3   OH238760   5.520   6.411   8.228 -0.2574 -0.6886  0.5079
 5734TIP3    H138761   5.448   6.369   8.274  0.1878 -0.1770  1.7084
 5734TIP3    H238762   5.485   6.433   8.142 -2.0660  1.0355  1.6113
 5735TIP3   OH238763   0.496   1.372   2.721  0.0653 -0.2954 -0.3642
 5735TIP3    H138764   0.466   1.302   2.778 -0.1828 -0.1733 -0.3431
 5735TIP3    H238765   0.586   1.389   2.749  0.2527 -0.8484 -0.6087
 5736TIP3   OH238766   0.741   0.909   6.904 -0.5916 -0.4043 -0.1993
 5736TIP3    H138767   0.724   0.956   6.822 -0.8628 -1.6398 -0.8698
 5736TIP3    H238768   0.794   0.970   6.956 -0.0801  0.2467 -1.4458
 5737TIP3   OH238769   2.544   2.342   7.518  0.4563 -0.1742 -0.0556
 5737TIP3    H138770   2.497   2.374   7.594 -0.4901  0.2057 -0.7846
 5737TIP3    H238771   2.507   2.255   7.501  0.6441 -0.2457 -0.1128
 5738TIP3   OH238772   1.594   1.254   6.411  0.0885  0.1110  0.1078
 5738TIP3    H138773   1.554   1.323   6.464 -1.9842 -0.5167 -0.5641
 5738TIP3    H238774   1.524   1.191   6.396  0.7269 -0.0641 -2.8349
 5739TIP3   OH238775   3.792   3.368   8.199  0.5044 -0.0666  0.7542
 5739TIP3    H138776   3.769   3.424   8.125  2.7540 -0.1556 -0.0833
 5739TIP3    H238777   3.711   3.360   8.249 -1.2899 -0.5096 -1.9934
 5740TIP3   OH238778   2.478   4.193   1.231 -0.4623 -0.1065 -0.5511
 5740TIP3    H138779   2.561   4.145   1.223  0.0127  0.5553  0.3058
 5740TIP3    H238780   2.483   4.237   1.316 -1.3578  0.5914 -0.8423
 5741TIP3   OH238781   6.026   0.408   1.245 -0.2440  0.5603 -0.2802
 5741TIP3    H138782   6.114   0.389   1.213  0.6410  1.3068  1.5423
 5741TIP3    H238783   5.985   0.322   1.257 -0.0612  0.2357 -1.8658
 5742TIP3   OH238784   4.736   3.468   1.809  0.2532  0.2297 -0.1372
 5742TIP3    H138785   4.810   3.409   1.824  0.8423  0.9155 -0.2859
 5742TIP3    H238786   4.660   3.420   1.843  1.1545  0.7467  2.9504
 5743TIP3   OH238787   6.705   6.313   2.659  0.9137  0.1476  0.6635
 5743TIP3    H138788   6.708   6.407   2.677 -2.3079  0.4479  0.3521
 5743TIP3    H238789   6.752   6.273   2.732 -0.1092  1.9349  2.4115
 5744TIP3   OH238790   4.388   1.169   8.251  0.3583 -0.5743 -0.8973
 5744TIP3    H138791   4.327   1.113   8.203 -1.5581  0.3189  0.3731
 5744TIP3    H238792   4.386   1.135   8.341  1.4998 -0.3188 -0.7575
 5745TIP3   OH238793   2.654   0.505   0.165 -0.2257 -0.4262  0.1629
 5745TIP3    H138794   2.653   0.437   0.098  1.3817 -0.3155  0.0005
 5745TIP3    H238795   2.681   0.584   0.118  0.4889 -0.2540  0.8547
 5746TIP3   OH238796   2.735   5.993   8.145 -0.1577  0.0489  0.6112
 5746TIP3    H138797   2.729   5.920   8.082  0.6648 -0.0121  0.5869
 5746TIP3    H238798   2.655   6.043   8.131  0.0707  0.1214 -0.6078
 5747TIP3   OH238799   5.010   4.639   8.470 -0.1228  0.0727  0.7861
 5747TIP3    H138800   5.042   4.723   8.436 -0.3605  0.2958  1.1017
 5747TIP3    H238801   4.922   4.658   8.501 -1.2207 -0.8830 -1.5048
 5748TIP3   OH238802   1.965   5.709   7.923 -0.1155  0.0403 -0.0491
 5748TIP3    H138803   1.911   5.673   7.994  0.0595 -0.8170 -0.3314
 5748TIP3    H238804   1.902   5.734   7.855 -0.1453 -3.8096 -1.6986
 5749TIP3   OH238805   5.861   5.825   1.956 -0.3139  0.1164 -0.0202
 5749TIP3    H138806   5.914   5.821   2.036  1.5429 -0.3219 -1.2049
 5749TIP3    H238807   5.809   5.745   1.957  1.4466 -1.0837 -0.3586
 5750TIP3   OH238808   5.224   2.610   7.923  0.5015 -0.3620 -0.1213
 5750TIP3    H138809   5.257   2.520   7.924  1.8520  0.1087 -0.4681
 5750TIP3    H238810   5.292   2.660   7.877 -0.2670  0.8227 -0.0016
 5751TIP3   OH238811   5.088   3.236   2.354  0.3830 -0.2376  0.3902
 5751TIP3    H138812   5.137   3.240   2.436 -2.0029  0.6845  1.8601
 5751TIP3    H238813   5.038   3.154   2.360 -0.6241  0.3672  0.3610
 5752TIP3   OH238814   3.720   4.896   1.741  0.6809  0.2971 -0.0084
 5752TIP3    H138815   3.682   4.876   1.656 -2.3872  0.4985  1.1927
 5752TIP3    H238816   3.738   4.810   1.780  0.0979  0.1497 -0.0540
 5753TIP3   OH238817   2.591   1.266   7.596  0.2045 -0.2970  0.2170
 5753TIP3    H138818   2.648   1.335   7.561  2.0911 -1.2717  1.1694
 5753TIP3    H238819   2.581   1.289   7.689 -0.9393 -0.1679  0.0654
 5754TIP3   OH238820   6.815   2.994   0.586  0.0296 -0.7544  0.0272
 5754TIP3    H138821   6.866   3.070   0.558  0.0290 -0.3858  1.0152
 5754TIP3    H238822   6.871   2.948   0.648  1.2144 -3.1649 -2.6026
 5755TIP3   OH238823   6.487   0.363   7.033  0.0357  0.2253  0.5096
 5755TIP3    H138824   6.479   0.354   7.128 -0.9198 -0.0810  0.4042
 5755TIP3    H238825   6.543   0.440   7.022  0.8704 -0.2399  1.3212
 5756TIP3   OH238826   1.283   0.848   0.607  0.4823 -0.4278 -0.3198
 5756TIP3    H138827   1.306   0.775   0.549 -0.2078 -0.5827 -0.4099
 5756TIP3    H238828   1.235   0.908   0.551  1.1938  0.1865 -0.2845
 5757TIP3   OH238829   3.043   2.296   8.338  0.1919  0.1670  0.1189
 5757TIP3    H138830   3.063   2.306   8.431  0.3391  1.3961 -0.0336
 5757TIP3    H238831   2.996   2.213   8.332  1.0295 -0.4008  1.1556
 5758TIP3   OH238832   0.281   3.548   1.083 -0.4073 -0.9544 -0.4413
 5758TIP3    H138833   0.212   3.548   1.017 -2.1025 -1.3089  1.2545
 5758TIP3    H238834   0.320   3.636   1.076 -0.8861 -0.8168 -1.5627
 5759TIP3   OH238835   4.614   1.573   1.918 -0.2916 -0.6809 -0.2268
 5759TIP3    H138836   4.682   1.575   1.851  0.0020 -0.7771  0.0629
 5759TIP3    H238837   4.660   1.547   1.998 -0.9135 -2.1810 -0.3206
 5760TIP3   OH238838   6.509   2.020   1.374 -0.1206  0.2142  0.6760
 5760TIP3    H138839   6.446   2.036   1.444 -0.6863  3.1621 -0.3667
 5760TIP3    H238840   6.458   1.978   1.305 -0.6585  1.3276  0.3721
 5761TIP3   OH238841   2.143   2.273   7.607  0.6748 -0.6365 -0.1130
 5761TIP3    H138842   2.204   2.271   7.533 -0.3074 -0.0193 -0.9828
 5761TIP3    H238843   2.082   2.202   7.590  0.0253 -0.0522 -0.2934
 5762TIP3   OH238844   6.120   1.129   0.940  0.3408  0.2109  0.0517
 5762TIP3    H138845   6.073   1.046   0.942 -0.4903  0.6878  1.0886
 5762TIP3    H238846   6.147   1.144   1.030 -0.8588  1.7966  0.1754
 5763TIP3   OH238847   1.560   1.790   1.443 -1.2486 -0.6723  0.6750
 5763TIP3    H138848   1.498   1.782   1.516  0.0413  0.6103  1.9699
 5763TIP3    H238849   1.603   1.874   1.457  0.1464 -1.1142 -0.6941
 5764TIP3   OH238850   0.785   4.720   0.120  0.1049  0.1161  0.1815
 5764TIP3    H138851   0.715   4.781   0.144  0.8489  1.1356 -0.1293
 5764TIP3    H238852   0.862   4.776   0.108  0.3634 -0.5927 -2.1391
 5765TIP3   OH238853   2.412   5.419   8.136  0.1610  0.0983 -0.1819
 5765TIP3    H138854   2.432   5.493   8.079 -1.2583 -0.6057 -1.6886
 5765TIP3    H238855   2.497   5.392   8.171  0.8419  1.7153 -0.4951
 5766TIP3   OH238856   3.734   6.553   7.299 -0.1651 -0.1929  0.3020
 5766TIP3    H138857   3.719   6.480   7.359 -0.3297  0.6505  1.3263
 5766TIP3    H238858   3.688   6.529   7.219  0.9356 -1.8157  0.1177
 5767TIP3   OH238859   1.959   1.937   8.349 -0.1988 -0.4228 -0.4068
 5767TIP3    H138860   1.953   1.848   8.383  1.0673 -0.0038  0.9822
 5767TIP3    H238861   2.039   1.938   8.297 -0.0402  0.0033 -0.1517
 5768TIP3   OH238862   2.623   3.288   1.367 -0.3019  0.4374  0.6401
 5768TIP3    H138863   2.676   3.292   1.447 -0.1622  0.4772  0.5469
 5768TIP3    H238864   2.683   3.254   1.301  0.0017  1.7305  0.2172
 5769TIP3   OH238865   0.048   5.267   7.911  0.0786  0.2449  0.2489
 5769TIP3    H138866   0.045   5.242   7.818 -1.2337 -0.0665  0.3513
 5769TIP3    H238867   0.048   5.363   7.910  1.3843  0.2661 -0.0763
 5770TIP3   OH238868   1.231   5.005   7.679 -0.5384 -0.0953  0.3113
 5770TIP3    H138869   1.149   4.958   7.691 -0.1999 -1.3530 -1.9254
 5770TIP3    H238870   1.210   5.076   7.618  0.2220 -1.1414 -1.2343
 5771TIP3   OH238871   5.179   3.511   7.583  0.0825 -0.0582 -0.1133
 5771TIP3    H138872   5.160   3.516   7.489  0.6145 -2.2131 -0.3885
 5771TIP3    H238873   5.219   3.425   7.594  0.6155  0.4235  2.0072
 5772TIP3   OH238874   6.474   2.885   7.386  0.5180  0.0830  0.3057
 5772TIP3    H138875   6.476   2.814   7.450 -0.4619 -0.2652 -0.0245
 5772TIP3    H238876   6.564   2.917   7.382  1.9751 -3.6067 -2.2961
 5773TIP3   OH238877   6.899   2.012   7.272  0.2131  0.9101 -0.1099
 5773TIP3    H138878   6.831   1.959   7.230  3.3535 -2.7674 -1.0877
 5773TIP3    H238879   6.947   2.051   7.199  1.0286  0.8526  0.3862
 5774TIP3   OH238880   0.366   1.285   2.033  0.5693 -0.2144  0.5080
 5774TIP3    H138881   0.272   1.299   2.021  0.6240 -1.3861 -1.7861
 5774TIP3    H238882   0.403   1.373   2.038 -0.4229  0.2980 -0.7490
 5775TIP3   OH238883   1.090   1.080   2.218  0.2369  0.0260  0.7172
 5775TIP3    H138884   1.153   1.044   2.280  0.2129  1.0655  1.3595
 5775TIP3    H238885   1.052   1.156   2.262  0.9521  1.4226 -0.9209
 5776TIP3   OH238886   0.332   4.731   2.098 -0.4520 -0.2093  0.1113
 5776TIP3    H138887   0.275   4.655   2.085 -1.8579  0.8023  0.0403
 5776TIP3    H238888   0.278   4.806   2.072  1.7468  0.6665 -2.4145
 5777TIP3   OH238889   1.899   3.318   2.231 -0.2646 -0.5392 -0.5201
 5777TIP3    H138890   1.814   3.301   2.192  0.3406 -1.7604 -1.3678
 5777TIP3    H238891   1.933   3.232   2.255 -0.1526  0.0680  1.7983
 5778TIP3   OH238892   3.897   3.784   7.507  0.0063  0.0091  0.0921
 5778TIP3    H138893   3.938   3.757   7.590 -1.7022  1.3920  1.4656
 5778TIP3    H238894   3.825   3.722   7.495  0.3861 -0.3257 -0.4980
 5779TIP3   OH238895   6.684   4.994   8.084 -0.0165 -0.1656  0.0057
 5779TIP3    H138896   6.661   5.063   8.022 -1.8339 -0.8084 -0.0979
 5779TIP3    H238897   6.662   4.913   8.039  0.1922 -0.7231  0.8813
 5780TIP3   OH238898   1.490   2.661   7.036  0.2035 -0.5232  0.2505
 5780TIP3    H138899   1.579   2.636   7.061  0.9905  0.9956 -0.8637
 5780TIP3    H238900   1.498   2.752   7.006 -1.4315 -0.8222 -1.2755
 5781TIP3   OH238901   3.331   4.694   7.322 -0.3012 -0.1786 -0.3298
 5781TIP3    H138902   3.326   4.704   7.417 -0.9480 -1.6539 -0.1841
 5781TIP3    H238903   3.418   4.658   7.305 -1.0500 -2.2864 -0.0147
 5782TIP3   OH238904   6.567   0.061   7.303  0.2235 -0.6169 -0.3244
 5782TIP3    H138905   6.637   0.121   7.276 -1.7964  2.0324 -0.1260
 5782TIP3    H238906   6.539   0.020   7.221 -1.3489  2.2829 -1.4194
 5783TIP3   OH238907   1.371   2.260   0.449  0.2161 -0.0696  0.1218
 5783TIP3    H138908   1.295   2.239   0.504 -0.4930  0.9773 -0.4036
 5783TIP3    H238909   1.349   2.223   0.363  0.1096  0.5595 -0.1315
 5784TIP3   OH238910   1.476   3.472   7.677 -0.2656 -0.3841 -0.1397
 5784TIP3    H138911   1.490   3.388   7.633 -2.3269 -0.2811 -1.1074
 5784TIP3    H238912   1.540   3.531   7.639  0.8155 -1.3553  0.1312
 5785TIP3   OH238913   2.786   2.030   1.066 -0.2860  0.0773  0.3298
 5785TIP3    H138914   2.870   2.064   1.096  0.1488 -1.0859  0.4846
 5785TIP3    H238915   2.768   1.956   1.123 -0.3476 -1.0246 -1.0705
 5786TIP3   OH238916   0.341   1.625   1.453 -0.2901 -0.1473 -0.3366
 5786TIP3    H138917   0.341   1.710   1.497 -2.3411 -0.8691  1.1757
 5786TIP3    H238918   0.424   1.585   1.479 -0.5299  0.2898  1.1954
 5787TIP3   OH238919   4.136   6.656   7.814 -0.1948  0.0151  0.1215
 5787TIP3    H138920   4.073   6.723   7.840  1.9526  2.4235 -0.5551
 5787TIP3    H238921   4.158   6.678   7.723  1.7687 -0.6374  0.4067
 5788TIP3   OH238922   0.978   6.828   0.820 -0.5722 -0.0891 -0.2450
 5788TIP3    H138923   0.955   6.767   0.750 -2.5940  0.0964  0.1867
 5788TIP3    H238924   0.978   6.914   0.777 -2.3107  0.0827  0.0279
 5789TIP3   OH238925   0.791   4.220   8.505  0.3521 -0.0910  0.0299
 5789TIP3    H138926   0.884   4.202   8.490  0.6637  1.1959  0.3342
 5789TIP3    H238927   0.787   4.314   8.518 -1.0860 -0.0603 -0.5565
 5790TIP3   OH238928   3.485   0.515   8.344 -0.4010  0.0024 -0.1132
 5790TIP3    H138929   3.438   0.591   8.379  0.9035  1.6671 -1.7223
 5790TIP3    H238930   3.564   0.509   8.399  0.2725  0.8665 -0.9383
 5791TIP3   OH238931   4.509   3.190   8.000 -0.0767 -0.0237 -1.0419
 5791TIP3    H138932   4.502   3.127   7.928  2.6960 -1.2086 -0.3779
 5791TIP3    H238933   4.496   3.137   8.079 -2.1993  1.1149 -0.5407
 5792TIP3   OH238934   4.052   4.093   2.612 -0.0324  0.0988 -0.7823
 5792TIP3    H138935   4.098   4.009   2.617 -1.1430 -0.5468 -0.9834
 5792TIP3    H238936   4.083   4.142   2.688  0.4785 -0.5679 -0.5490
 5793TIP3   OH238937   3.641   1.285   1.905  0.2470  0.0635  0.1215
 5793TIP3    H138938   3.573   1.265   1.970 -0.7622  3.0068  0.1032
 5793TIP3    H238939   3.704   1.340   1.952  1.8673 -1.3497 -0.2951
 5794TIP3   OH238940   6.034   1.378   0.838 -0.0758 -0.1125  0.6548
 5794TIP3    H138941   6.060   1.298   0.883 -0.9416 -0.8304 -0.1019
 5794TIP3    H238942   6.084   1.447   0.882  1.6708 -1.1958  0.4895
 5795TIP3   OH238943   2.433   4.658   2.572 -0.0224  0.1520 -0.1942
 5795TIP3    H138944   2.384   4.581   2.544 -0.9692  0.6154  0.1554
 5795TIP3    H238945   2.455   4.641   2.664 -3.3501  1.7769  1.0402
 5796TIP3   OH238946   4.164   6.007   1.713 -0.3239 -0.0441 -0.2518
 5796TIP3    H138947   4.138   6.074   1.650 -1.7136  1.5488  1.8714
 5796TIP3    H238948   4.260   6.014   1.717 -0.3603  1.0680 -0.8637
 5797TIP3   OH238949   3.550   5.046   1.895 -0.0547 -0.4277  0.1239
 5797TIP3    H138950   3.487   4.990   1.941  0.6863 -0.7175  0.8085
 5797TIP3    H238951   3.615   4.986   1.861  0.7536 -0.0041  0.8668
 5798TIP3   OH238952   0.669   2.167   8.559 -0.0305 -0.0500  0.2216
 5798TIP3    H138953   0.646   2.189   8.468  1.1738  1.9726  0.3357
 5798TIP3    H238954   0.757   2.203   8.570  0.0103 -0.6314  2.0838
 5799TIP3   OH238955   1.847   6.136   2.166  1.2149  0.1564  0.5435
 5799TIP3    H138956   1.929   6.183   2.150  1.3440 -0.3427 -0.3169
 5799TIP3    H238957   1.783   6.205   2.184  1.6359  0.5960  0.3723
 5800TIP3   OH238958   3.413   3.582   8.131  0.1205  0.0700 -0.4136
 5800TIP3    H138959   3.423   3.581   8.035 -2.3783  2.6427 -0.8211
 5800TIP3    H238960   3.457   3.662   8.159  1.6879 -1.1456  0.8107
 5801TIP3   OH238961   0.592   3.535   2.066 -0.2453  0.0638 -0.3602
 5801TIP3    H138962   0.627   3.575   1.987 -0.4142  1.9833  0.4805
 5801TIP3    H238963   0.509   3.581   2.082 -0.4701 -0.6503  0.6335
 5802TIP3   OH238964   2.546   5.717   6.720  0.2022  0.3461  0.3600
 5802TIP3    H138965   2.500   5.744   6.641  0.4336  0.8919  0.4107
 5802TIP3    H238966   2.488   5.652   6.760  0.3829 -0.4304 -0.5886
 5803TIP3   OH238967   2.623   3.559   1.175  0.3967  0.2510 -0.2567
 5803TIP3    H138968   2.634   3.550   1.269 -2.1363  1.1961  0.2157
 5803TIP3    H238969   2.547   3.616   1.165 -0.7820 -1.5739 -2.8453
 5804TIP3   OH238970   0.368   1.540   7.620 -0.0750  0.4077  0.2467
 5804TIP3    H138971   0.337   1.497   7.541  0.5769 -0.6441  0.5456
 5804TIP3    H238972   0.463   1.546   7.608  0.0334  0.2040  0.9679
 5805TIP3   OH238973   5.084   4.076   1.523 -0.3365 -0.2711  0.5508
 5805TIP3    H138974   5.070   4.118   1.438 -1.3444 -0.7000  0.4963
 5805TIP3    H238975   5.095   3.983   1.501  1.2368 -0.1533  0.7279
 5806TIP3   OH238976   2.536   6.451   7.919 -0.0435  0.2439 -0.4198
 5806TIP3    H138977   2.539   6.476   7.827  0.0576 -0.8379 -0.7284
 5806TIP3    H238978   2.624   6.417   7.937  0.2887  1.4615  0.3961
 5807TIP3   OH238979   0.642   6.801   1.642  0.1554  0.2351  0.0684
 5807TIP3    H138980   0.700   6.740   1.688 -0.5825  0.6002  1.5310
 5807TIP3    H238981   0.603   6.748   1.573  0.5021 -0.6159  0.5019
 5808TIP3   OH238982   2.129   4.993   7.902 -0.3965  0.3925  0.5811
 5808TIP3    H138983   2.034   4.990   7.889 -0.2976  0.5663 -0.2440
 5808TIP3    H238984   2.147   5.083   7.929 -0.5649  0.1155  1.6728
 5809TIP3   OH238985   4.836   6.719   6.757  0.1203  0.0497  0.0169
 5809TIP3    H138986   4.851   6.625   6.772  0.7356  0.4055  1.9342
 5809TIP3    H238987   4.919   6.751   6.721  1.0811  0.3912  2.3574
 5810TIP3   OH238988   1.765   4.978   0.341  0.4913 -0.0609 -0.4225
 5810TIP3    H138989   1.696   5.010   0.283  1.2778  0.6717 -0.9672
 5810TIP3    H238990   1.732   4.893   0.372 -0.3017 -0.0827 -1.2763
 5811TIP3   OH238991   6.077   3.421   2.328 -0.0052  0.0514 -0.0960
 5811TIP3    H138992   5.995   3.437   2.282 -0.3732  1.7921  1.0660
 5811TIP3    H238993   6.108   3.509   2.352  1.4175 -0.6636  0.8088
 5812TIP3   OH238994   3.397   3.340   7.117 -0.7743  0.0958  0.4382
 5812TIP3    H138995   3.321   3.286   7.095 -1.0150 -0.6295  2.7747
 5812TIP3    H238996   3.470   3.297   7.073 -1.2830 -0.9612  0.5846
 5813TIP3   OH238997   1.279   3.493   2.862 -0.3586 -0.3780 -0.3988
 5813TIP3    H138998   1.245   3.423   2.806  1.3025 -2.3541  0.8991
 5813TIP3    H238999   1.317   3.557   2.802 -0.9016 -1.1522 -1.5925
 5814TIP3   OH239000   1.988   5.827   0.261 -0.7277 -0.8898 -0.4657
 5814TIP3    H139001   2.032   5.911   0.244 -3.1424  0.3669 -1.0836
 5814TIP3    H239002   1.959   5.798   0.174 -0.6467 -1.9478 -0.1512
 5815TIP3   OH239003   4.290   3.146   0.557  0.3616  0.5938  0.4622
 5815TIP3    H139004   4.346   3.147   0.479 -0.2379  0.2673  0.0200
 5815TIP3    H239005   4.243   3.230   0.553 -0.3328  0.1913 -0.0268
 5816TIP3   OH239006   0.848   4.789   1.263 -0.0709 -0.1105 -0.0399
 5816TIP3    H139007   0.826   4.880   1.244 -1.4764 -0.4982 -0.3761
 5816TIP3    H239008   0.943   4.789   1.274 -0.1069  1.4700  0.4389
 5817TIP3   OH239009   0.304   0.570   2.315  0.5398 -0.0309  0.3585
 5817TIP3    H139010   0.345   0.486   2.334  0.5566  0.0507  0.6933
 5817TIP3    H239011   0.307   0.617   2.398  1.4578  0.6925 -0.0677
 5818TIP3   OH239012   0.232   5.338   7.533  0.0656  0.1435 -0.9105
 5818TIP3    H139013   0.187   5.357   7.451 -1.6744  2.9841  0.5727
 5818TIP3    H239014   0.166   5.295   7.587  0.3197  0.8276 -0.0442
 5819TIP3   OH239015   3.440   2.997   0.755 -0.0479  0.2510  0.1282
 5819TIP3    H139016   3.476   3.086   0.759  0.8942  0.2436 -3.7636
 5819TIP3    H239017   3.517   2.940   0.763 -0.3076 -0.1055  0.1134
 5820TIP3   OH239018   4.930   5.801   1.798  0.4183 -0.2022 -0.1634
 5820TIP3    H139019   4.946   5.870   1.863 -0.7890 -0.4734  0.4339
 5820TIP3    H239020   4.951   5.720   1.844  1.0085 -0.3077 -0.6026
 5821TIP3   OH239021   0.238   1.744   1.807  0.1931  0.5940  0.0375
 5821TIP3    H139022   0.226   1.786   1.722  0.0365  1.3176  0.4095
 5821TIP3    H239023   0.164   1.683   1.814  1.3410 -1.0110 -1.2254
 5822TIP3   OH239024   3.027   3.030   1.644 -0.2436  0.6764  0.5218
 5822TIP3    H139025   2.963   2.970   1.682 -0.4738 -0.3617 -1.4089
 5822TIP3    H239026   3.094   2.974   1.606 -0.0909  1.6354 -0.6969
 5823TIP3   OH239027   4.152   6.285   6.689  0.6101 -0.3226 -0.2253
 5823TIP3    H139028   4.221   6.223   6.711  1.3280  0.4196 -0.3510
 5823TIP3    H239029   4.075   6.230   6.670  1.0372 -1.1264  0.3486
 5824TIP3   OH239030   4.573   1.454   1.266 -0.0816 -0.2671 -0.0901
 5824TIP3    H139031   4.486   1.419   1.289 -0.6696  1.2209  0.0194
 5824TIP3    H239032   4.626   1.437   1.344 -0.8724  0.7490  0.6949
 5825TIP3   OH239033   6.200   6.880   0.811 -0.0294  0.4696  1.0039
 5825TIP3    H139034   6.192   6.971   0.841  0.9164  0.5745  0.9700
 5825TIP3    H239035   6.243   6.886   0.726 -1.4683  0.0787  0.1975
 5826TIP3   OH239036   0.219   0.083   0.112  0.0112 -0.0001 -0.5383
 5826TIP3    H139037   0.141   0.038   0.145  0.8922 -1.0574  0.1531
 5826TIP3    H239038   0.287   0.064   0.177  0.9618  0.5425 -1.3502
 5827TIP3   OH239039   0.371   2.740   1.542 -0.1002  0.2522  0.3768
 5827TIP3    H139040   0.395   2.831   1.522  0.3509 -0.3179 -1.8871
 5827TIP3    H239041   0.300   2.720   1.481 -0.2960 -0.8742  0.9648
 5828TIP3   OH239042   1.958   0.875   8.471 -0.1363  0.5890  0.7056
 5828TIP3    H139043   2.039   0.916   8.440 -0.4337  0.2883 -0.5475
 5828TIP3    H239044   1.986   0.813   8.538  1.4983 -3.4628 -3.1922
 5829TIP3   OH239045   5.375   1.245   8.310 -0.1217 -0.3351  0.6472
 5829TIP3    H139046   5.365   1.149   8.309 -0.3276 -0.4124 -2.7320
 5829TIP3    H239047   5.469   1.260   8.305 -0.1400 -0.5575 -1.9887
 5830TIP3   OH239048   3.166   4.556   1.782  0.7315 -0.2618 -0.4306
 5830TIP3    H139049   3.199   4.560   1.872  2.2640 -1.4860 -0.8775
 5830TIP3    H239050   3.073   4.573   1.789  0.4079 -2.3927  1.6758
 5831TIP3   OH239051   4.884   5.373   0.449 -0.1434  0.5875  0.3969
 5831TIP3    H139052   4.819   5.421   0.397  1.4683  2.2829 -0.1690
 5831TIP3    H239053   4.832   5.326   0.514 -1.9582  1.5309 -0.2830
 5832TIP3   OH239054   3.074   4.995   1.394  0.2540  0.2995  0.8043
 5832TIP3    H139055   3.161   4.988   1.353  0.6037 -0.6492  1.6832
 5832TIP3    H239056   3.092   5.009   1.487 -0.5411  0.4471  0.9428
 5833TIP3   OH239057   2.522   1.006   7.551  0.2832  0.0488  0.0459
 5833TIP3    H139058   2.614   0.984   7.566  0.2301  0.8999  1.8148
 5833TIP3    H239059   2.519   1.101   7.554 -1.0131  0.0278  2.8248
 5834TIP3   OH239060   3.550   6.820   0.285 -0.5454 -0.0474 -0.3526
 5834TIP3    H139061   3.472   6.810   0.341 -0.9216  0.2158 -0.8212
 5834TIP3    H239062   3.623   6.817   0.346 -0.9420  0.0552  0.1420
 5835TIP3   OH239063   4.442   4.147   2.107  0.4338 -0.1134 -0.3046
 5835TIP3    H139064   4.466   4.138   2.014 -0.8774  0.0757 -0.6831
 5835TIP3    H239065   4.458   4.240   2.127 -0.4688  0.1410 -0.7117
 5836TIP3   OH239066   4.663   1.314   1.052 -0.3148 -0.0565  0.0791
 5836TIP3    H139067   4.619   1.367   1.118  1.0461 -1.1677  1.9813
 5836TIP3    H239068   4.653   1.224   1.084  1.7365 -0.4865 -0.3907
 5837TIP3   OH239069   5.861   3.517   0.033  0.1577  0.1530  0.2781
 5837TIP3    H139070   5.902   3.597   0.003  0.4071 -0.4441 -1.0130
 5837TIP3    H239071   5.881   3.513   0.127  0.4303  1.4030  0.2831
 5838TIP3   OH239072   4.252   2.989   0.784  0.5861 -0.1495  0.2910
 5838TIP3    H139073   4.331   2.937   0.799  0.5474 -0.4329 -0.4559
 5838TIP3    H239074   4.253   3.008   0.690 -0.1831 -0.0857  0.2888
 5839TIP3   OH239075   4.729   3.469   2.670 -0.4611 -0.3069 -0.1204
 5839TIP3    H139076   4.636   3.478   2.687 -0.2758  1.4757  0.1162
 5839TIP3    H239077   4.736   3.394   2.610 -2.0259 -0.4080 -0.2001
 5840TIP3   OH239078   1.646   1.330   0.416  0.4074 -0.2012  0.3192
 5840TIP3    H139079   1.740   1.348   0.424  0.1136  2.0691 -0.5273
 5840TIP3    H239080   1.632   1.314   0.323  0.0376 -1.1122  0.5275
 5841TIP3   OH239081   3.838   5.386   0.184 -0.6938 -0.3626  0.6185
 5841TIP3    H139082   3.858   5.421   0.271  0.4791  0.8931 -0.1236
 5841TIP3    H239083   3.804   5.462   0.135  0.4701 -0.5794 -0.5831
 5842TIP3   OH239084   6.693   0.831   7.826 -0.3330 -0.9008  0.5003
 5842TIP3    H139085   6.633   0.767   7.787 -1.2969  0.5843 -0.6162
 5842TIP3    H239086   6.703   0.898   7.758 -0.6033  0.8993  2.1564
 5843TIP3   OH239087   1.629   0.731   2.100  0.3953 -0.2508  0.5147
 5843TIP3    H139088   1.590   0.769   2.178 -0.0714  0.0125  0.1606
 5843TIP3    H239089   1.647   0.806   2.043 -1.0658 -0.5644 -0.4304
 5844TIP3   OH239090   1.890   6.279   7.070  0.3188 -0.3881 -0.3467
 5844TIP3    H139091   1.823   6.307   7.008 -1.6755 -2.2812  0.8228
 5844TIP3    H239092   1.945   6.218   7.020 -0.6279 -1.0856 -0.5552
 5845TIP3   OH239093   6.745   1.676   2.620 -0.0799 -0.4184  0.1214
 5845TIP3    H139094   6.697   1.593   2.613  0.3585 -0.6797  0.1701
 5845TIP3    H239095   6.679   1.740   2.647 -0.4454 -0.7271 -0.0335
 5846TIP3   OH239096   0.073   6.669   0.060 -0.4760  0.0208  0.2438
 5846TIP3    H139097   0.074   6.580   0.025  0.3466  0.5562 -1.1909
 5846TIP3    H239098  -0.017   6.684   0.087 -0.6157 -1.2509  0.5184
 5847TIP3   OH239099   2.780   5.288   2.092  0.1751 -0.2659  0.6858
 5847TIP3    H139100   2.861   5.271   2.140  0.2611 -0.5213  0.4451
 5847TIP3    H239101   2.741   5.202   2.077  1.2422 -0.4214 -1.6375
 5848TIP3   OH239102   2.373   5.392   2.084  0.5386  0.1785 -0.6114
 5848TIP3    H139103   2.441   5.374   2.149  0.6826 -1.5762 -1.2057
 5848TIP3    H239104   2.376   5.318   2.024 -1.3349  0.4744 -1.1503
 5849TIP3   OH239105   0.979   2.194   7.613 -0.9285  0.7948  0.2715
 5849TIP3    H139106   0.976   2.282   7.650  0.3149  0.2685  1.7249
 5849TIP3    H239107   0.913   2.145   7.661  0.6348  0.1309  1.8724
 5850TIP3   OH239108   6.312   2.574   1.348 -0.4057  0.2798  0.2141
 5850TIP3    H139109   6.356   2.514   1.408 -0.9552  1.2701  1.6540
 5850TIP3    H239110   6.356   2.658   1.360 -1.3170  0.7872  0.1414
 5851TIP3   OH239111   5.398   0.599   0.454  0.1903 -0.1533 -0.3578
 5851TIP3    H139112   5.416   0.690   0.475  1.8121 -0.5757  0.2298
 5851TIP3    H239113   5.381   0.598   0.360  0.4490  0.6985 -0.4147
 5852TIP3   OH239114   4.339   6.318   8.163 -0.1196  0.1603 -0.4526
 5852TIP3    H139115   4.311   6.394   8.214  1.2411  0.3002  0.1396
 5852TIP3    H239116   4.423   6.344   8.125  0.7379 -1.2858  0.3614
 5853TIP3   OH239117   6.243   5.197   0.633  0.3713 -0.0306  0.0986
 5853TIP3    H139118   6.249   5.144   0.712  0.0028 -0.0194  0.1329
 5853TIP3    H239119   6.288   5.145   0.566 -0.1948 -0.5023  0.0750
 5854TIP3   OH239120   5.069   1.140   1.559 -0.6213  0.0677 -0.3892
 5854TIP3    H139121   5.094   1.231   1.544 -0.5483 -0.0706 -1.1430
 5854TIP3    H239122   5.152   1.091   1.556 -0.6270  0.0017  0.2813
 5855TIP3   OH239123   1.696   3.057   0.230 -0.2280  0.4425  0.0253
 5855TIP3    H139124   1.786   3.029   0.247 -0.3707 -1.3134 -1.7453
 5855TIP3    H239125   1.648   2.976   0.215 -2.0765  1.3662  0.6657
 5856TIP3   OH239126   0.232   0.639   1.805  0.6222  0.6215  0.2562
 5856TIP3    H139127   0.139   0.650   1.785  0.2548 -1.0432  0.9214
 5856TIP3    H239128   0.235   0.633   1.900  1.1093 -1.5354  0.1504
 5857TIP3   OH239129   5.257   0.013   1.359  0.5750 -0.0750 -0.1841
 5857TIP3    H139130   5.248   0.086   1.297 -1.3035 -0.6983 -0.7022
 5857TIP3    H239131   5.214   0.045   1.438  1.0949 -0.0761  0.1019
 5858TIP3   OH239132   5.570   0.123   2.493  0.1263 -0.0069  0.5970
 5858TIP3    H139133   5.663   0.145   2.484 -0.1575  0.8210 -0.5684
 5858TIP3    H239134   5.569   0.028   2.503  0.9655 -0.6520 -3.5735
 5859TIP3   OH239135   0.693   0.355   2.698 -0.5068 -0.0530  0.3279
 5859TIP3    H139136   0.776   0.321   2.664  0.1173 -0.1290  1.8662
 5859TIP3    H239137   0.702   0.350   2.793 -1.9641  0.7111  0.5317
 5860TIP3   OH239138   4.080   4.209   8.246 -0.0809  0.0190  0.3762
 5860TIP3    H139139   4.037   4.159   8.315  0.5479  0.8679  1.4086
 5860TIP3    H239140   4.173   4.190   8.257  0.0610  0.5049  0.0536
 5861TIP3   OH239141   5.445   4.520   0.386 -0.1529  0.0089  0.2059
 5861TIP3    H139142   5.360   4.480   0.402 -0.5742  0.7311 -0.1622
 5861TIP3    H239143   5.444   4.540   0.292  0.0293  0.9125  0.3914
 5862TIP3   OH239144   4.663   1.446   0.667  0.2659  0.3020  0.3291
 5862TIP3    H139145   4.713   1.514   0.712 -0.1743  0.8505  0.0023
 5862TIP3    H239146   4.588   1.430   0.725  0.7043 -0.3821  0.7250
 5863TIP3   OH239147   6.132   2.637   1.645 -0.0872 -0.4168  0.1476
 5863TIP3    H139148   6.085   2.663   1.566 -0.4223 -0.3847  0.3513
 5863TIP3    H239149   6.062   2.621   1.709  0.0588 -2.3234 -0.1102
 5864TIP3   OH239150   5.383   5.375   1.548  0.2876  1.1072  0.4554
 5864TIP3    H139151   5.311   5.313   1.533 -0.5267  2.3478 -1.1484
 5864TIP3    H239152   5.399   5.414   1.462  1.5971  2.2458  1.1701
 5865TIP3   OH239153   4.073   6.836   6.912  0.1677 -0.3397  0.1938
 5865TIP3    H139154   4.053   6.783   6.834 -2.3855 -0.3321  0.7299
 5865TIP3    H239155   4.141   6.787   6.957  1.1483 -0.7560 -1.6260
 5866TIP3   OH239156   1.371   4.249   1.413  0.0043  0.4104  0.7427
 5866TIP3    H139157   1.423   4.255   1.493  0.7145 -0.3783  0.3536
 5866TIP3    H239158   1.381   4.334   1.371 -1.9176  1.5306  2.3887
 5867TIP3   OH239159   1.325   4.843   1.456  0.1145  0.1278 -0.0095
 5867TIP3    H139160   1.389   4.774   1.435  0.4743  0.0754  1.2190
 5867TIP3    H239161   1.376   4.912   1.498 -0.0489  1.6790 -2.1780
 5868TIP3   OH239162   1.409   3.769   7.419  0.0925 -0.5297 -0.1935
 5868TIP3    H139163   1.481   3.735   7.366 -0.1688 -1.4125  0.0046
 5868TIP3    H239164   1.343   3.797   7.356  0.7613  0.6900 -0.3947
 5869TIP3   OH239165   3.559   1.312   2.159 -0.6899 -0.0669  0.0156
 5869TIP3    H139166   3.514   1.331   2.242 -1.2861  0.8568 -0.5134
 5869TIP3    H239167   3.617   1.386   2.145 -1.8205  0.6206 -1.2245
 5870TIP3   OH239168   2.489   1.577   7.380 -0.4536  0.6128 -0.1119
 5870TIP3    H139169   2.505   1.563   7.473 -1.6253  1.0077  0.1675
 5870TIP3    H239170   2.554   1.643   7.354  0.8682 -0.5833  0.0483
 5871TIP3   OH239171   5.237   0.133   6.657 -0.4655 -0.3443  0.0012
 5871TIP3    H139172   5.190   0.212   6.632 -1.5475 -0.0886  2.5002
 5871TIP3    H239173   5.318   0.136   6.607 -1.6251  0.9461 -1.9372
 5872TIP3   OH239174   3.460   5.501   7.354  0.1637  0.4390 -0.8023
 5872TIP3    H139175   3.489   5.455   7.432 -0.9421  0.1360 -0.5595
 5872TIP3    H239176   3.502   5.455   7.281 -0.0956 -0.2825 -0.4937
 5873TIP3   OH239177   4.608   0.324   2.257 -0.2012  0.0268  0.2801
 5873TIP3    H139178   4.515   0.332   2.281 -0.0333  0.6864  0.7479
 5873TIP3    H239179   4.651   0.293   2.337  0.0982  0.5342  0.3254
 5874TIP3   OH239180   5.452   0.690   2.405  0.5969  0.1205 -0.3866
 5874TIP3    H139181   5.427   0.782   2.398 -0.2469 -0.2350 -3.4200
 5874TIP3    H239182   5.538   0.685   2.363 -0.3297 -0.7244 -2.3338
 5875TIP3   OH239183   0.855   5.408   0.328  0.0568  0.3114 -0.5083
 5875TIP3    H139184   0.828   5.485   0.378  2.9596  2.1710 -1.5642
 5875TIP3    H239185   0.870   5.340   0.394 -1.1086  1.0807  0.5969
 5876TIP3   OH239186   1.859   3.596   0.233  0.3025 -0.1247 -0.2958
 5876TIP3    H139187   1.817   3.534   0.173  0.3505  1.5571 -2.1825
 5876TIP3    H239188   1.939   3.623   0.187  2.0873 -1.1419  1.9833
 5877TIP3   OH239189   1.203   3.384   7.087 -0.4124  0.1205 -0.3861
 5877TIP3    H139190   1.147   3.457   7.059  1.1099  0.7854 -1.8532
 5877TIP3    H239191   1.218   3.400   7.180 -2.3390  0.1041 -0.0203
 5878TIP3   OH239192   1.954   5.450   1.618 -0.2208 -0.0841  0.3744
 5878TIP3    H139193   2.044   5.425   1.600 -0.0820 -0.3301  1.3482
 5878TIP3    H239194   1.906   5.430   1.538  0.5548 -0.1049 -0.0889
 5879TIP3   OH239195   4.114   2.310   2.831  0.0760  0.2644 -0.1205
 5879TIP3    H139196   4.091   2.391   2.786  0.7225 -0.6663 -2.3011
 5879TIP3    H239197   4.045   2.248   2.806  0.5829 -0.3494 -0.0291
 5880TIP3   OH239198   3.052   0.785   1.336 -0.4208 -0.0712  0.0919
 5880TIP3    H139199   3.061   0.741   1.421 -0.6572  0.1001  0.2059
 5880TIP3    H239200   3.057   0.713   1.273 -2.0630 -0.4448  0.3340
 5881TIP3   OH239201   2.405   4.567   1.903  0.2880 -0.3869 -0.1232
 5881TIP3    H139202   2.371   4.535   1.986  1.0095 -0.6787  0.0656
 5881TIP3    H239203   2.500   4.564   1.913  0.3793 -0.1859 -0.8656
 5882TIP3   OH239204   3.440   1.155   7.951 -0.2112 -0.1971 -0.4949
 5882TIP3    H139205   3.533   1.147   7.930  0.2947  0.5764  1.2629
 5882TIP3    H239206   3.417   1.244   7.922  0.3440  0.6566  1.5161
 5883TIP3   OH239207   5.172   4.937   7.432  0.1528 -0.2584  0.9385
 5883TIP3    H139208   5.248   4.890   7.467 -0.0106 -2.3952 -1.2986
 5883TIP3    H239209   5.183   5.027   7.464  2.6362 -0.9007  2.1583
 5884TIP3   OH239210   6.241   0.129   8.320  0.1456  0.0981 -0.0856
 5884TIP3    H139211   6.321   0.107   8.368 -1.0452 -1.8032  1.1724
 5884TIP3    H239212   6.187   0.174   8.384 -0.1904  0.4671 -0.6297
 5885TIP3   OH239213   4.112   3.280   8.414  0.5817 -0.2944 -0.5590
 5885TIP3    H139214   4.195   3.240   8.391  2.0516  2.2755 -0.1079
 5885TIP3    H239215   4.104   3.269   8.509  0.0536 -1.0850 -0.6816
 5886TIP3   OH239216   2.629   4.626   0.338  0.2565  0.0946 -0.9705
 5886TIP3    H139217   2.571   4.684   0.388 -0.8610 -1.2634 -0.6318
 5886TIP3    H239218   2.668   4.568   0.404  1.8123  0.7955 -1.2325
 5887TIP3   OH239219   2.690   6.080   0.208  0.1089  0.3602 -0.5292
 5887TIP3    H139220   2.699   6.008   0.146  1.2287 -1.1633  1.2792
 5887TIP3    H239221   2.614   6.057   0.261 -0.4493  1.3111 -0.8916
 5888TIP3   OH239222   6.558   3.010   0.244  0.4874  0.1249 -0.0943
 5888TIP3    H139223   6.530   2.955   0.170  2.6610 -0.7752 -0.3198
 5888TIP3    H239224   6.642   2.973   0.271  1.0972  2.1827  1.0220
 5889TIP3   OH239225   6.199   4.565   8.033  0.4496  0.3583  0.2297
 5889TIP3    H139226   6.269   4.603   7.979  0.6626  0.8154  0.8165
 5889TIP3    H239227   6.245   4.515   8.100  0.1672 -1.6132 -0.9598
 5890TIP3   OH239228   4.248   2.735   7.353  0.4842 -0.0123  0.4124
 5890TIP3    H139229   4.340   2.716   7.372  0.0678 -3.2186 -0.2292
 5890TIP3    H239230   4.202   2.653   7.372 -1.7649  0.4540 -2.3467
 5891TIP3   OH239231   2.948   1.753   8.288  0.2141  0.1847 -0.2497
 5891TIP3    H139232   2.897   1.706   8.222  2.4003 -0.6408 -1.4636
 5891TIP3    H239233   2.908   1.840   8.292 -1.0963 -0.3372 -1.3331
 5892TIP3   OH239234   3.290   1.087   1.578 -0.3564  0.4838 -0.1771
 5892TIP3    H139235   3.273   1.156   1.643  0.5498  0.3825  0.1804
 5892TIP3    H239236   3.242   1.011   1.612 -0.5479  0.6576 -0.0526
 5893TIP3   OH239237   2.992   4.073   1.473  0.0646  0.0999  0.2978
 5893TIP3    H139238   2.960   4.157   1.508 -1.2565 -0.3885  0.3336
 5893TIP3    H239239   2.955   4.007   1.533  1.8656 -0.4746  0.8300
 5894TIP3   OH239240   4.481   4.176   1.789 -0.1226 -0.4776  0.3407
 5894TIP3    H139241   4.567   4.177   1.832  0.0266 -0.3253  0.0454
 5894TIP3    H239242   4.497   4.134   1.704  0.0452  1.1158 -0.4773
 5895TIP3   OH239243   2.247   3.019   8.333 -0.0142  0.3974 -0.2184
 5895TIP3    H139244   2.297   2.939   8.347 -0.5895 -0.1039 -0.9249
 5895TIP3    H239245   2.212   3.041   8.419 -0.6679 -0.6831 -0.1850
 5896TIP3   OH239246   3.398   5.994   0.725  0.5318 -0.6727 -0.8076
 5896TIP3    H139247   3.489   5.990   0.694  0.3526  0.4835 -1.5614
 5896TIP3    H239248   3.347   6.008   0.645 -0.1147  0.6223 -0.1874
 5897TIP3   OH239249   0.604   5.639   8.481 -0.7894 -0.3024  0.0566
 5897TIP3    H139250   0.690   5.645   8.440 -0.6518  1.5994  0.5686
 5897TIP3    H239251   0.554   5.582   8.422  0.5348 -0.7188 -0.7075
 5898TIP3   OH239252   0.202   5.592   1.959  0.3496 -0.1041  0.1734
 5898TIP3    H139253   0.292   5.567   1.936  0.9330  0.3575  1.8705
 5898TIP3    H239254   0.160   5.509   1.981 -0.0463 -0.4855 -1.7752
 5899TIP3   OH239255   5.727   0.705   2.344  0.2291 -0.6226  0.0899
 5899TIP3    H139256   5.743   0.780   2.402 -2.8266  1.4553 -1.5249
 5899TIP3    H239257   5.805   0.701   2.288  1.0490  0.4342  1.0976
 5900TIP3   OH239258   1.854   6.260   1.046  0.5357 -0.1130 -0.2276
 5900TIP3    H139259   1.864   6.329   1.112  1.5945 -0.0123 -0.4813
 5900TIP3    H239260   1.781   6.290   0.991  0.9839  0.8086 -0.3342
 5901TIP3   OH239261   0.519   0.864   1.651  0.3873 -0.6147  0.6302
 5901TIP3    H139262   0.473   0.910   1.721 -0.7530 -1.2586  0.3316
 5901TIP3    H239263   0.551   0.783   1.691  1.5673 -0.0310  0.9148
 5902TIP3   OH239264   5.411   3.609   8.439 -0.3502  0.6439  0.1096
 5902TIP3    H139265   5.425   3.562   8.521  1.5105  1.2248  0.1550
 5902TIP3    H239266   5.419   3.701   8.462  1.7961  0.7694 -0.9560
 5903TIP3   OH239267   6.319   6.836   7.887 -0.5980 -0.4229  0.2787
 5903TIP3    H139268   6.406   6.875   7.891  0.4682 -2.1443 -3.0247
 5903TIP3    H239269   6.262   6.907   7.857  0.4087 -0.1691 -1.0924
 5904TIP3   OH239270   5.264   4.427   1.678  0.2151 -0.1317  0.3565
 5904TIP3    H139271   5.263   4.504   1.621 -0.2554 -0.2759  0.1661
 5904TIP3    H239272   5.181   4.383   1.660 -0.7306  0.7115  2.3402
 5905TIP3   OH239273   0.169   6.204   7.491  0.7527  0.5276 -0.3847
 5905TIP3    H139274   0.124   6.268   7.545 -2.1100 -1.6860  0.1364
 5905TIP3    H239275   0.193   6.252   7.412  0.6609  2.6949  0.8317
 5906TIP3   OH239276   5.720   3.902   7.475  0.1169 -0.0882  0.4879
 5906TIP3    H139277   5.808   3.870   7.457  0.0594 -0.7116  1.2839
 5906TIP3    H239278   5.708   3.889   7.569 -0.2205  1.5241  0.7001
 5907TIP3   OH239279   4.805   4.135   1.248 -0.0217 -0.2295 -0.1767
 5907TIP3    H139280   4.722   4.093   1.271  0.3466 -1.0399 -0.2798
 5907TIP3    H239281   4.836   4.174   1.329  0.0240 -0.8680  0.1153
 5908TIP3   OH239282   4.116   4.382   1.476  0.3212 -0.4527  0.4760
 5908TIP3    H139283   4.098   4.335   1.557 -1.5855 -0.2840  0.1992
 5908TIP3    H239284   4.041   4.363   1.420  0.1180  1.8011 -0.1324
 5909TIP3   OH239285   6.723   3.385   7.819 -0.0015 -0.5635 -0.1614
 5909TIP3    H139286   6.808   3.355   7.852 -0.5383 -2.6344 -0.4777
 5909TIP3    H239287   6.668   3.390   7.897  0.3843  0.7164  0.0351
 5910TIP3   OH239288   6.168   0.435   2.155 -0.5039  0.2671 -0.5876
 5910TIP3    H139289   6.217   0.394   2.084 -0.5693  2.0291 -1.7211
 5910TIP3    H239290   6.152   0.524   2.125 -0.2278  1.2186  1.7923
 5911TIP3   OH239291   4.455   1.476   7.526  0.5318  0.8615 -0.1897
 5911TIP3    H139292   4.473   1.396   7.575 -0.9803 -1.5523 -3.1893
 5911TIP3    H239293   4.376   1.511   7.566 -0.8407 -1.2102 -0.8854
 5912TIP3   OH239294   6.269   3.217   8.544  0.2541 -0.0599 -0.0161
 5912TIP3    H139295   6.359   3.243   8.567  0.4155  0.1744 -0.8820
 5912TIP3    H239296   6.273   3.197   8.451  0.0317 -2.8364  0.4853
 5913TIP3   OH239297   1.158   6.172   1.072  0.2433 -0.3025 -0.4129
 5913TIP3    H139298   1.250   6.148   1.078 -0.0444 -0.9821  2.1552
 5913TIP3    H239299   1.155   6.264   1.101  0.0405 -0.5006  0.2054
 5914TIP3   OH239300   4.351   1.903   2.673 -0.2656  0.2159 -0.3010
 5914TIP3    H139301   4.375   1.865   2.758 -2.1556 -1.1251 -0.2856
 5914TIP3    H239302   4.373   1.995   2.680  0.8382 -0.1259  1.1611
 5915TIP3   OH239303   4.046   5.861   0.643  0.1103 -0.2811 -0.0029
 5915TIP3    H139304   3.992   5.802   0.591 -0.7307  0.6794 -0.2480
 5915TIP3    H239305   4.018   5.846   0.733 -0.0507 -0.3072 -0.0570
 5916TIP3   OH239306   1.879   6.662   7.370 -0.1898  0.4984 -0.2896
 5916TIP3    H139307   1.968   6.689   7.345 -0.1177 -0.0888 -0.6717
 5916TIP3    H239308   1.822   6.724   7.325 -0.0157  0.1486 -1.0007
 5917TIP3   OH239309   2.842   6.669   7.821  0.0127  0.1503 -0.2556
 5917TIP3    H139310   2.832   6.594   7.880  1.2559 -0.3777 -0.7032
 5917TIP3    H239311   2.842   6.632   7.733  1.1171  0.6183 -0.4645
 5918TIP3   OH239312   3.343   3.095   0.187 -0.2468 -0.1578 -0.7843
 5918TIP3    H139313   3.388   3.158   0.244  1.7150 -1.4227 -0.8437
 5918TIP3    H239314   3.250   3.104   0.210  0.2464  0.9574  0.9811
 5919TIP3   OH239315   4.299   0.262   8.569  0.5040  0.0678 -0.4541
 5919TIP3    H139316   4.331   0.320   8.500  1.5372  1.0551  0.7994
 5919TIP3    H239317   4.373   0.205   8.590  0.0448 -0.5571 -0.4948
 5920TIP3   OH239318   0.517   5.818   3.176 -0.2831  0.2540  0.0902
 5920TIP3    H139319   0.428   5.810   3.143 -0.6740  0.3096  1.1131
 5920TIP3    H239320   0.544   5.727   3.192 -0.3830  0.2733  0.3696
 5921TIP3   OH239321   0.310   3.277   8.362  0.3811 -0.0963  0.6024
 5921TIP3    H139322   0.344   3.301   8.448  0.2365  1.0749  0.3486
 5921TIP3    H239323   0.387   3.274   8.306  0.5654 -1.5665  0.9138
 5922TIP3   OH239324   2.248   4.824   7.696  0.5932  0.6431 -0.1332
 5922TIP3    H139325   2.225   4.873   7.617 -0.0952  1.4982  0.5884
 5922TIP3    H239326   2.188   4.856   7.763 -1.6952 -2.9540 -0.2031
 5923TIP3   OH239327   4.784   2.496   1.021 -0.7451 -0.3145 -0.5105
 5923TIP3    H139328   4.830   2.485   0.937 -4.1593  0.2853 -2.6235
 5923TIP3    H239329   4.718   2.427   1.021 -0.4640 -0.6764  2.0608
 5924TIP3   OH239330   4.142   4.879   0.222 -0.0479  0.4124 -0.0758
 5924TIP3    H139331   4.176   4.801   0.267 -1.0634  0.4875  0.8881
 5924TIP3    H239332   4.048   4.876   0.238 -0.0209  2.2697  0.6934
 5925TIP3   OH239333   0.085   1.272   2.378 -0.0830 -0.0432 -0.1543
 5925TIP3    H139334   0.037   1.244   2.456 -0.3788 -1.7141 -0.9088
 5925TIP3    H239335   0.164   1.218   2.378 -0.0541 -0.0067 -0.9890
 5926TIP3   OH239336   4.929   2.988   1.485  0.1967 -0.3443  0.8569
 5926TIP3    H139337   4.987   2.914   1.505  1.0239 -0.8838 -2.7225
 5926TIP3    H239338   4.853   2.948   1.444 -0.6219  0.6536  1.3673
 5927TIP3   OH239339   6.385   5.780   8.480 -0.0973  0.0573 -0.6901
 5927TIP3    H139340   6.426   5.856   8.437  1.6988 -0.2990  0.2822
 5927TIP3    H239341   6.453   5.713   8.479 -1.6094 -1.5410 -1.4000
 5928TIP3   OH239342   6.498   6.544   1.634  0.1274  0.4706  0.3568
 5928TIP3    H139343   6.420   6.556   1.580  0.4566  1.8883  0.1538
 5928TIP3    H239344   6.485   6.604   1.708  1.6039  1.7079 -0.3528
 5929TIP3   OH239345   5.696   0.322   7.066  0.2305 -0.3822  0.4130
 5929TIP3    H139346   5.783   0.360   7.056 -0.5788  1.3888 -0.3180
 5929TIP3    H239347   5.688   0.263   6.991  0.3044  0.5055 -0.3188
 5930TIP3   OH239348   5.640   0.052   8.322  0.5564  0.0911 -0.2599
 5930TIP3    H139349   5.719   0.062   8.268  0.0063 -1.4313 -1.4370
 5930TIP3    H239350   5.661   0.097   8.404  1.5878  2.1247 -1.5587
 5931TIP3   OH239351   0.023   3.623   8.021  0.2925  0.0920 -0.7441
 5931TIP3    H139352  -0.007   3.650   8.108  2.3503 -1.5346  0.5818
 5931TIP3    H239353  -0.030   3.673   7.960 -1.9872  0.5137  1.4345
 5932TIP3   OH239354   6.738   2.018   1.055  0.2995  0.4429  0.3209
 5932TIP3    H139355   6.688   2.019   0.974 -0.5327 -0.9664  0.7734
 5932TIP3    H239356   6.730   2.106   1.091  0.4719  1.0059 -0.9893
 5933TIP3   OH239357   1.890   4.562   0.757 -0.4836  0.4529 -0.4189
 5933TIP3    H139358   1.885   4.471   0.726  0.8822  0.3529 -0.4063
 5933TIP3    H239359   1.880   4.615   0.679 -0.7420  0.2888 -0.5007
 5934TIP3   OH239360   1.254   2.712   3.024 -0.4318  0.3004  0.5491
 5934TIP3    H139361   1.260   2.631   3.075 -1.1053  0.9046  1.6163
 5934TIP3    H239362   1.338   2.755   3.037 -0.0528 -0.2319 -0.0586
 5935TIP3   OH239363   1.901   3.983   2.157  0.1153  0.0536 -0.4806
 5935TIP3    H139364   1.892   3.890   2.177 -1.0451  0.3267  0.3387
 5935TIP3    H239365   1.954   4.018   2.230 -1.3966  0.4445  0.4700
 5936TIP3   OH239366   0.878   1.986   0.416  0.1740  0.3642 -0.0303
 5936TIP3    H139367   0.785   2.007   0.402  0.2863  1.4965  0.8317
 5936TIP3    H239368   0.877   1.916   0.481 -0.0769  0.3468 -0.0502
 5937TIP3   OH239369   1.939   2.317   7.370 -0.2821  0.9474 -0.1357
 5937TIP3    H139370   1.877   2.263   7.419  0.3317  1.1534  0.9100
 5937TIP3    H239371   1.902   2.405   7.375  1.1486  1.4902  2.4271
 5938TIP3   OH239372   3.053   0.208   1.625 -0.0282  0.5441  0.0341
 5938TIP3    H139373   3.118   0.151   1.584  0.1836  0.5754  0.3309
 5938TIP3    H239374   2.990   0.226   1.555 -1.4835 -2.0664  0.5280
 5939TIP3   OH239375   6.325   1.968   1.014  0.1409 -0.1909  0.2205
 5939TIP3    H139376   6.367   2.008   0.938  1.2220 -0.5129  0.6368
 5939TIP3    H239377   6.357   1.877   1.014  0.1276 -0.1955  1.0467
 5940TIP3   OH239378   0.846   6.860   7.683 -0.8035 -0.0419  0.1578
 5940TIP3    H139379   0.909   6.811   7.737 -1.8537 -0.0814  1.3972
 5940TIP3    H239380   0.808   6.924   7.743  0.4850  2.3277 -1.4011
 5941TIP3   OH239381   6.342   2.512   0.500 -0.2561  0.4123  0.3166
 5941TIP3    H139382   6.365   2.485   0.589  1.1663 -1.0184 -0.4401
 5941TIP3    H239383   6.363   2.605   0.497  1.9816 -0.0165  0.8268
 5942TIP3   OH239384   2.846   2.890   1.247 -0.2688 -0.1301 -0.4124
 5942TIP3    H139385   2.857   2.837   1.326 -0.5073  2.7269  1.7374
 5942TIP3    H239386   2.931   2.887   1.204 -0.0668 -1.5995  0.0398
 5943TIP3   OH239387   4.742   1.150   0.324  0.1724  0.1580 -0.3447
 5943TIP3    H139388   4.708   1.068   0.290  2.1105 -0.4489 -0.9619
 5943TIP3    H239389   4.704   1.158   0.411 -1.7948 -0.2437 -1.1125
 5944TIP3   OH239390   2.161   1.582   8.575 -0.2632 -0.4031  0.1815
 5944TIP3    H139391   2.203   1.668   8.578 -0.9789  0.0003 -0.7756
 5944TIP3    H239392   2.092   1.587   8.642  0.0457 -0.4319  0.5048
 5945TIP3   OH239393   2.417   3.028   0.203 -0.2471 -0.5868  0.0047
 5945TIP3    H139394   2.489   3.033   0.140  0.3164  0.8817  0.7288
 5945TIP3    H239395   2.413   2.936   0.228  1.2175 -0.7296 -0.2387
 5946TIP3   OH239396   1.942   0.737   2.264  0.5727  0.2299 -0.0623
 5946TIP3    H139397   2.038   0.744   2.268  0.6131 -0.5540  0.4337
 5946TIP3    H239398   1.921   0.662   2.320 -0.2047 -0.6496 -1.4808
 5947TIP3   OH239399   0.547   0.023   2.385 -0.1377 -0.1246  0.7179
 5947TIP3    H139400   0.578  -0.067   2.373 -0.4993 -0.3856  1.6622
 5947TIP3    H239401   0.486   0.018   2.458 -0.0735  0.9177  0.8606
 5948TIP3   OH239402   3.685   5.866   0.290 -0.7724  0.4215 -0.3655
 5948TIP3    H139403   3.655   5.905   0.208 -0.9778  1.9023  0.3773
 5948TIP3    H239404   3.780   5.878   0.288 -0.8826  1.4680  0.0875
 5949TIP3   OH239405   4.590   2.181   2.831  0.1259  0.1595 -0.0567
 5949TIP3    H139406   4.581   2.257   2.888  1.9274  1.1043 -0.9603
 5949TIP3    H239407   4.505   2.174   2.787 -0.4197  0.9701  0.8225
 5950TIP3   OH239408   2.776   6.725   2.429  0.2662 -0.2654 -0.7123
 5950TIP3    H139409   2.820   6.643   2.408  0.4776  0.3505 -3.0156
 5950TIP3    H239410   2.727   6.707   2.509  1.4429 -2.1830 -0.3681
 5951TIP3   OH239411   6.886   5.643   3.419 -0.1258  0.2517  0.4977
 5951TIP3    H139412   6.949   5.580   3.384 -0.1532  0.4773  0.0386
 5951TIP3    H239413   6.808   5.590   3.440 -0.3265  0.1981 -0.3385
 5952TIP3   OH239414   1.388   0.410   2.539  0.3548 -0.2779  0.3210
 5952TIP3    H139415   1.303   0.439   2.570  0.0744 -2.2979  1.6529
 5952TIP3    H239416   1.442   0.404   2.618  0.7125 -2.1597 -0.0171
 5953TIP3   OH239417   3.985   0.438   6.902  0.1243 -0.0080  0.2926
 5953TIP3    H139418   4.078   0.463   6.895 -0.4420  1.7916 -3.4295
 5953TIP3    H239419   3.946   0.508   6.954  0.4295  0.9136 -0.6675
 5954TIP3   OH239420   2.825   3.177   1.236  0.7890  0.0855 -0.5078
 5954TIP3    H139421   2.911   3.167   1.277  1.5466 -0.1218 -2.0560
 5954TIP3    H239422   2.785   3.091   1.242  1.0104 -0.0128 -0.4400
 5955TIP3   OH239423   3.441   1.306   1.080 -0.3240 -0.3762 -0.2556
 5955TIP3    H139424   3.485   1.224   1.102  1.7710  1.0176  1.1507
 5955TIP3    H239425   3.351   1.293   1.111  0.2985 -1.6859  1.1580
 5956TIP3   OH239426   3.545   5.827   1.759 -0.2792 -0.2762 -0.2861
 5956TIP3    H139427   3.580   5.821   1.848 -0.0289 -2.3509 -0.4824
 5956TIP3    H239428   3.457   5.864   1.771  0.1659  0.5240  0.6858
 5957TIP3   OH239429   1.067   6.422   1.646  0.3882  0.6884  0.3560
 5957TIP3    H139430   1.038   6.401   1.557  0.2331  0.6811  0.4073
 5957TIP3    H239431   1.072   6.338   1.690  3.7388  0.2689 -0.5861
 5958TIP3   OH239432   6.164   1.828   7.017  0.0233  0.1831  0.4192
 5958TIP3    H139433   6.170   1.789   6.929 -1.1483 -0.8677  0.7615
 5958TIP3    H239434   6.131   1.756   7.072  1.8890  0.4590  1.9924
 5959TIP3   OH239435   0.733   4.343   0.531  0.2602 -0.4417  0.5917
 5959TIP3    H139436   0.739   4.252   0.558  2.2495 -0.2246  1.0233
 5959TIP3    H239437   0.823   4.376   0.535 -0.3236  1.3949 -0.0772
 5960TIP3   OH239438   3.476   1.912   8.158  0.0613  0.0121  0.5631
 5960TIP3    H139439   3.383   1.928   8.169 -0.2649 -1.2971 -0.1751
 5960TIP3    H239440   3.514   1.934   8.243 -0.8240  1.0540  0.7199
 5961TIP3   OH239441   4.386   0.994   8.476  0.3221  0.1810  0.2685
 5961TIP3    H139442   4.443   1.063   8.508  0.8968 -1.0457  2.0360
 5961TIP3    H239443   4.356   0.948   8.555 -2.4332  0.2213 -0.6402
 5962TIP3   OH239444   1.646   4.604   1.692 -0.4235  0.0707  0.1134
 5962TIP3    H139445   1.725   4.646   1.726  0.9929 -1.6199 -0.8391
 5962TIP3    H239446   1.612   4.553   1.766 -1.4140  1.8158  0.8986
 5963TIP3   OH239447   3.358   2.366   0.300  0.0675  0.2507 -0.2314
 5963TIP3    H139448   3.382   2.459   0.295  0.5855  0.2836  1.8234
 5963TIP3    H239449   3.418   2.322   0.240  2.3248  0.8667  1.4381
 5964TIP3   OH239450   0.111   1.283   2.831 -0.0169 -0.0615 -0.3591
 5964TIP3    H139451   0.191   1.232   2.820 -0.8495 -1.4101 -0.4155
 5964TIP3    H239452   0.114   1.347   2.759  0.8316 -0.3132 -0.5650
 5965TIP3   OH239453   1.660   0.008   1.925  0.1294 -0.4111  0.0274
 5965TIP3    H139454   1.730  -0.032   1.874 -0.0988 -0.8563  0.0619
 5965TIP3    H239455   1.589   0.023   1.863 -0.3874 -1.5355  0.3323
 5966TIP3   OH239456   2.354   1.505   0.238  0.2720 -0.4096  0.3179
 5966TIP3    H139457   2.325   1.493   0.147 -1.3500  1.6008  0.5004
 5966TIP3    H239458   2.449   1.498   0.234  0.3407  0.8938 -1.7979
 5967TIP3   OH239459   1.010   2.159   2.052 -0.1692  1.0656 -0.4093
 5967TIP3    H139460   0.933   2.180   2.105 -1.5400  1.6335 -2.4710
 5967TIP3    H239461   0.977   2.099   1.985  2.1166 -1.9959  0.9964
 5968TIP3   OH239462   2.559   5.524   0.604 -0.2266  0.0964 -0.7289
 5968TIP3    H139463   2.604   5.594   0.556 -1.9356  0.7880 -1.4198
 5968TIP3    H239464   2.491   5.570   0.653  1.0020 -0.6873  1.8712
 5969TIP3   OH239465   0.304   5.746   8.285  0.3962  0.1520 -0.1918
 5969TIP3    H139466   0.325   5.756   8.378 -2.9589 -0.2766  0.7111
 5969TIP3    H239467   0.238   5.813   8.268 -0.4654 -1.0401 -1.7688
 5970TIP3   OH239468   5.200   6.350   1.893  0.3584 -0.2346 -0.0283
 5970TIP3    H139469   5.114   6.385   1.874  0.6550  0.3760 -0.2796
 5970TIP3    H239470   5.261   6.417   1.860  0.9125 -0.3102  0.7963
 5971TIP3   OH239471   4.515   6.313   1.882 -0.4953  0.4018 -0.1771
 5971TIP3    H139472   4.448   6.321   1.814  0.6119 -0.9980 -1.4963
 5971TIP3    H239473   4.589   6.364   1.850  0.0173 -0.2313 -0.0300
 5972TIP3   OH239474   1.329   5.389   0.500 -0.5690 -0.7269 -0.6429
 5972TIP3    H139475   1.373   5.446   0.436  2.8718 -2.0728  0.2595
 5972TIP3    H239476   1.287   5.322   0.447 -0.3247 -0.1554 -1.5911
 5973TIP3   OH239477   2.899   6.727   0.893  0.1017  0.3408 -0.1322
 5973TIP3    H139478   2.888   6.782   0.816 -2.0693 -0.2730 -0.3307
 5973TIP3    H239479   2.860   6.643   0.869  0.2803 -0.1906  1.2897
 5974TIP3   OH239480   5.769   3.677   1.314 -0.1653 -0.2110  0.5815
 5974TIP3    H139481   5.844   3.625   1.286 -0.4381 -0.1613 -0.2712
 5974TIP3    H239482   5.794   3.712   1.400  1.9119  2.0082 -0.7825
 5975TIP3   OH239483   1.859   3.791   1.506 -0.8267  0.2902  0.0085
 5975TIP3    H139484   1.791   3.855   1.528 -1.4689 -0.0220 -1.0053
 5975TIP3    H239485   1.870   3.739   1.586 -2.4596 -0.2450 -0.0667
 5976TIP3   OH239486   4.820   6.745   7.711 -0.0550  0.1694 -0.5103
 5976TIP3    H139487   4.777   6.805   7.772 -0.3872 -0.9228  0.3618
 5976TIP3    H239488   4.777   6.760   7.627 -1.4857 -0.1966  0.1249
 5977TIP3   OH239489   6.780   1.027   7.635 -0.3357  0.2699 -0.1319
 5977TIP3    H139490   6.707   1.038   7.574  0.1133 -1.2747 -1.0103
 5977TIP3    H239491   6.784   1.110   7.683 -1.6912  0.9482 -1.1183
 5978TIP3   OH239492   1.539   4.962   2.008 -0.0442  0.4274  0.2564
 5978TIP3    H139493   1.483   4.906   1.955 -3.3216  3.3359  0.2635
 5978TIP3    H239494   1.560   5.036   1.951  1.0373  0.9712  1.3157
 5979TIP3   OH239495   3.790   4.178   7.848 -0.7663 -0.2660 -0.2101
 5979TIP3    H139496   3.812   4.129   7.769  3.0342 -0.7743  0.9800
 5979TIP3    H239497   3.789   4.270   7.821  0.9258 -0.3985 -0.8098
 5980TIP3   OH239498   6.820   1.256   7.437  0.0082 -0.5539 -0.5741
 5980TIP3    H139499   6.763   1.268   7.513 -0.9405 -0.5642 -1.2659
 5980TIP3    H239500   6.902   1.299   7.461 -0.2759 -0.5801  0.4620
 5981TIP3   OH239501   2.043   3.870   7.874 -0.7118  0.3220 -0.0806
 5981TIP3    H139502   2.125   3.892   7.829  0.5306  0.0323  1.9201
 5981TIP3    H239503   1.978   3.869   7.804  0.3484  3.6364 -1.3379
 5982TIP3   OH239504   6.897   1.142   2.044  0.0565  0.1874  0.1927
 5982TIP3    H139505   6.871   1.121   1.954  0.7143  3.3267 -0.8813
 5982TIP3    H239506   6.990   1.120   2.048 -0.3807 -1.7644  0.8187
 5983TIP3   OH239507   4.786   1.061   1.611 -0.1826 -0.4598  0.6436
 5983TIP3    H139508   4.715   1.086   1.552  1.2030 -1.5369 -1.5818
 5983TIP3    H239509   4.852   1.129   1.600  1.6858 -2.5073 -2.0603
 5984TIP3   OH239510   5.900   2.415   0.041  0.1410 -0.0373 -0.1320
 5984TIP3    H139511   5.859   2.502   0.045  2.1890  0.9793  0.8275
 5984TIP3    H239512   5.827   2.354   0.041 -1.4404  1.6750 -2.1740
 5985TIP3   OH239513   6.463   3.528   8.461 -0.2215  0.5023  0.4334
 5985TIP3    H139514   6.524   3.456   8.448  0.0652  0.5455  1.4591
 5985TIP3    H239515   6.466   3.546   8.555 -1.0676  1.1637  0.3518
 5986TIP3   OH239516   5.618   0.921   0.360 -0.5404  0.1637 -0.4127
 5986TIP3    H139517   5.528   0.939   0.333 -1.0036  0.1947  1.0323
 5986TIP3    H239518   5.643   0.998   0.411 -1.0563 -1.2954  2.2970
 5987TIP3   OH239519   1.254   2.885   0.491  0.1298 -0.6136 -0.3481
 5987TIP3    H139520   1.186   2.898   0.557 -0.0099  1.2936 -0.7834
 5987TIP3    H239521   1.272   2.791   0.492 -1.5376 -0.9638  0.7266
 5988TIP3   OH239522   1.677   3.252   2.094 -0.2263 -0.6309  0.3230
 5988TIP3    H139523   1.589   3.289   2.086 -0.2852 -0.9238 -0.4955
 5988TIP3    H239524   1.663   3.157   2.092  0.1210 -0.6764  0.0405
 5989TIP3   OH239525   1.162   4.369   0.661 -0.0431 -0.1695  0.3445
 5989TIP3    H139526   1.212   4.415   0.594  1.4080 -0.7100  1.0047
 5989TIP3    H239527   1.114   4.302   0.614  0.0867  0.1686 -0.2845
 5990TIP3   OH239528   2.559   1.734   2.579 -0.3770 -0.2029  0.3164
 5990TIP3    H139529   2.592   1.648   2.604  0.3664 -0.4651 -1.4263
 5990TIP3    H239530   2.487   1.751   2.639  0.4676 -1.3461  1.6936
 5991TIP3   OH239531   4.243   0.584   1.996 -0.0371 -0.4438  0.7160
 5991TIP3    H139532   4.177   0.653   2.002  0.3802 -0.0196  0.4529
 5991TIP3    H239533   4.296   0.595   2.074 -0.2172 -0.7259  0.8797
 5992TIP3   OH239534   2.935   1.673   0.604 -0.0629 -0.1491 -0.3339
 5992TIP3    H139535   2.931   1.738   0.535 -0.5677  0.6210  0.4016
 5992TIP3    H239536   2.883   1.710   0.676 -0.0621 -1.1952  0.2357
 5993TIP3   OH239537   5.001   6.774   2.738  0.1012 -0.2229 -0.0707
 5993TIP3    H139538   5.068   6.831   2.775  0.0509 -1.1945  1.6181
 5993TIP3    H239539   4.926   6.783   2.797 -0.4131 -0.9231 -0.5889
 5994TIP3   OH239540   5.660   6.709   7.461 -0.5098  0.1640  0.1141
 5994TIP3    H139541   5.710   6.667   7.390 -0.6244 -1.9091  1.1877
 5994TIP3    H239542   5.724   6.766   7.504  0.3167 -0.6504  0.0133
 5995TIP3   OH239543   5.811   5.346   2.041  0.1759  0.6116 -0.2118
 5995TIP3    H139544   5.727   5.340   1.995  1.2435  0.0611 -2.2020
 5995TIP3    H239545   5.821   5.262   2.084  0.4162  0.0520 -1.3207
 5996TIP3   OH239546   2.928   6.555   8.333 -0.1167  0.3584  0.1206
 5996TIP3    H139547   2.835   6.530   8.333 -0.2032  0.6661  0.3341
 5996TIP3    H239548   2.973   6.479   8.368 -0.1075 -0.4132 -1.4850
 5997TIP3   OH239549   6.537   4.299   8.410  0.3371  0.2782 -0.0740
 5997TIP3    H139550   6.472   4.279   8.477 -1.3402  0.0040 -1.7004
 5997TIP3    H239551   6.618   4.260   8.443 -0.0088  1.5107  2.4888
 5998TIP3   OH239552   6.172   6.375   2.274 -0.0329 -0.1761  0.3496
 5998TIP3    H139553   6.231   6.319   2.325  0.6329  1.4075  1.3966
 5998TIP3    H239554   6.084   6.350   2.303  0.3296  1.0005  2.7302
 5999TIP3   OH239555   1.800   1.192   8.300  0.1556  0.3119 -0.1542
 5999TIP3    H139556   1.761   1.128   8.359 -1.2729  1.1958 -0.1142
 5999TIP3    H239557   1.815   1.270   8.354  1.9257  0.0452 -0.1866
 6000TIP3   OH239558   2.035   4.918   2.911 -0.0399  0.8890  0.1396
 6000TIP3    H139559   2.106   4.969   2.871  0.8840 -2.2921 -2.7055
 6000TIP3    H239560   2.080   4.860   2.973 -0.9675  2.5981  2.5858
 6001TIP3   OH239561   2.806   6.012   2.517 -0.0003  0.5168 -0.0755
 6001TIP3    H139562   2.894   5.985   2.491 -0.3711  0.3103 -1.1649
 6001TIP3    H239563   2.778   5.945   2.579  0.2561  0.0683 -0.4355
 6002TIP3   OH239564   5.290   6.079   1.512 -0.1242  0.3310  0.3280
 6002TIP3    H139565   5.321   6.109   1.598 -0.4785  0.2760  0.4784
 6002TIP3    H239566   5.226   6.145   1.485 -1.6423 -0.7584  1.1074
 6003TIP3   OH239567   1.654   2.514   2.549  0.3661  0.0489 -0.6743
 6003TIP3    H139568   1.690   2.428   2.528  1.5535  0.7592 -1.6858
 6003TIP3    H239569   1.585   2.527   2.485 -0.0699 -0.2979 -0.2806
 6004TIP3   OH239570   1.202   4.686   2.668 -0.8636 -0.2112 -0.4132
 6004TIP3    H139571   1.190   4.613   2.608  2.6944 -0.2974 -1.2519
 6004TIP3    H239572   1.231   4.645   2.750 -0.7525  0.1449 -0.2735
 6005TIP3   OH239573   4.843   1.556   8.348 -0.3995 -0.0236 -0.2266
 6005TIP3    H139574   4.877   1.528   8.263 -1.4116 -0.3038 -0.5500
 6005TIP3    H239575   4.895   1.633   8.371 -1.6632  1.5186 -2.2193
 6006TIP3   OH239576   6.711   1.303   2.773  0.0989  0.1738 -0.1899
 6006TIP3    H139577   6.758   1.367   2.827  0.5253 -0.5349  0.2911
 6006TIP3    H239578   6.664   1.356   2.709  0.1131  0.9928  0.4635
 6007TIP3   OH239579   6.458   1.274   7.717 -0.3777 -0.2411 -0.0787
 6007TIP3    H139580   6.429   1.347   7.771 -0.2853 -1.0947  1.1501
 6007TIP3    H239581   6.380   1.249   7.667 -0.5795  0.2656 -0.0209
 6008TIP3   OH239582   3.694   3.195   1.945 -0.2403  0.2590 -0.1777
 6008TIP3    H139583   3.637   3.170   1.872 -0.1628 -1.5842  0.3410
 6008TIP3    H239584   3.781   3.164   1.918  0.3176  1.9679 -0.4395
 6009TIP3   OH239585   4.701   5.118   7.746 -0.5809 -0.0941 -0.0195
 6009TIP3    H139586   4.606   5.117   7.730 -0.5044 -2.8652 -0.8446
 6009TIP3    H239587   4.736   5.175   7.678 -1.5374 -0.2003 -0.6216
 6010TIP3   OH239588   2.518   0.361   7.686  0.2976 -0.3375  0.1150
 6010TIP3    H139589   2.562   0.315   7.614 -3.3939 -2.5233 -1.0458
 6010TIP3    H239590   2.543   0.311   7.764  1.6787 -0.0399 -0.1090
 6011TIP3   OH239591   6.634   2.598   2.569 -0.7709 -0.5951 -0.1055
 6011TIP3    H139592   6.541   2.619   2.565 -0.3978  1.0669 -1.8243
 6011TIP3    H239593   6.657   2.605   2.661 -1.9073  1.3191  0.0837
 6012TIP3   OH239594   1.635   3.467   8.252 -0.0475 -0.0842  0.2234
 6012TIP3    H139595   1.629   3.537   8.186 -0.2131 -0.2105  0.1031
 6012TIP3    H239596   1.630   3.386   8.201  0.6506 -0.1910  0.3077
 6013TIP3   OH239597   1.212   4.706   8.119 -0.2381  0.4738  0.3371
 6013TIP3    H139598   1.298   4.688   8.081 -0.7045 -1.6419  0.1265
 6013TIP3    H239599   1.229   4.764   8.193  1.7196 -1.7407  1.7820
 6014TIP3   OH239600   2.396   6.876   0.523  0.3463 -0.6756 -0.2871
 6014TIP3    H139601   2.458   6.947   0.540 -0.2780  0.2296 -1.6095
 6014TIP3    H239602   2.371   6.888   0.432  1.7779 -3.8450 -1.2401
 6015TIP3   OH239603   4.142   5.716   7.618 -0.0096 -0.1403 -0.0773
 6015TIP3    H139604   4.150   5.699   7.525  1.3436 -0.9641  0.1700
 6015TIP3    H239605   4.062   5.669   7.644  1.1885 -2.4530 -0.2938
 6016TIP3   OH239606   3.929   6.032   6.844 -0.4231 -0.7694  0.2135
 6016TIP3    H139607   3.935   6.054   6.751 -1.8558 -0.6987  0.1063
 6016TIP3    H239608   3.847   5.982   6.851 -0.5406 -0.4325  1.4880
 6017TIP3   OH239609   1.001   3.540   7.453 -0.4730 -0.3944  0.1150
 6017TIP3    H139610   0.992   3.625   7.409  0.3616 -0.0845  0.5104
 6017TIP3    H239611   1.059   3.558   7.527  0.5526 -1.5145 -0.3783
 6018TIP3   OH239612   4.769   3.246   8.236 -0.0622 -0.1644 -0.2200
 6018TIP3    H139613   4.760   3.170   8.178 -1.1876  0.1343 -0.4552
 6018TIP3    H239614   4.854   3.233   8.279  0.6935 -0.5066 -1.7555
 6019TIP3   OH239615   4.108   0.180   3.038  0.4925  0.3932  0.2085
 6019TIP3    H139616   4.198   0.157   3.058 -0.1245 -0.7253  1.9604
 6019TIP3    H239617   4.063   0.096   3.029 -0.7675  0.8923  1.4262
 6020TIP3   OH239618   3.126   1.859   1.814  0.2148 -0.0151  0.4907
 6020TIP3    H139619   3.101   1.888   1.726  0.6635  0.7150  0.5899
 6020TIP3    H239620   3.174   1.777   1.799  0.6752  0.3313  0.0071
 6021TIP3   OH239621   2.863   5.725   7.783  0.2960 -0.5951 -0.5925
 6021TIP3    H139622   2.936   5.664   7.772  1.7580  1.1511 -1.2060
 6021TIP3    H239623   2.806   5.707   7.708  0.5249 -1.4149 -0.5830
 6022TIP3   OH239624   3.949   6.716   7.468  0.7361  0.1395  0.3546
 6022TIP3    H139625   3.893   6.668   7.529  0.5497 -0.1411 -0.0311
 6022TIP3    H239626   4.026   6.739   7.520  0.1580  0.7668  0.9672
 6023TIP3   OH239627   1.491   5.569   0.372 -0.4869  0.3784  0.3843
 6023TIP3    H139628   1.545   5.645   0.353 -0.8444  0.7951  0.9859
 6023TIP3    H239629   1.554   5.498   0.387 -0.1644  0.4644 -0.5126
 6024TIP3   OH239630   1.034   3.325   7.998 -0.7371 -0.1605 -0.3007
 6024TIP3    H139631   0.984   3.397   7.961 -1.4280 -1.0182 -1.0628
 6024TIP3    H239632   1.125   3.356   7.994 -0.9031  0.2263 -1.6696
 6025TIP3   OH239633   6.590   4.433   0.063  0.0256  0.4155  0.1905
 6025TIP3    H139634   6.562   4.481  -0.014  0.5252 -0.3353 -0.4810
 6025TIP3    H239635   6.677   4.400   0.040  0.3025  0.4239  1.1821
 6026TIP3   OH239636   0.283   6.874   0.522 -0.0181 -0.1912  0.1513
 6026TIP3    H139637   0.311   6.887   0.612 -1.5795 -1.4314  0.8762
 6026TIP3    H239638   0.338   6.933   0.470  1.0482  0.3946  1.8774
 6027TIP3   OH239639   6.573   0.517   0.472 -1.0203 -0.3545 -0.1301
 6027TIP3    H139640   6.612   0.586   0.527  0.7676 -0.6606 -0.9328
 6027TIP3    H239641   6.597   0.435   0.517 -2.6589 -0.5046  0.5243
 6028TIP3   OH239642   0.955   6.279   8.578  0.3165  0.4534  0.0306
 6028TIP3    H139643   0.902   6.296   8.656  0.7129  0.6747  0.2602
 6028TIP3    H239644   1.032   6.334   8.590 -0.5405  2.0546 -1.5065
 6029TIP3   OH239645   0.503   0.627   1.790 -0.5042  0.5520  0.1233
 6029TIP3    H139646   0.408   0.630   1.797 -0.4897  2.6179  0.2932
 6029TIP3    H239647   0.533   0.602   1.877 -0.8899 -0.5706 -0.0603
 6030TIP3   OH239648   5.481   6.740   0.292  0.2196  0.3775 -0.5678
 6030TIP3    H139649   5.431   6.666   0.258 -0.8164  1.7526 -2.2277
 6030TIP3    H239650   5.566   6.734   0.248  0.6200 -0.5146  0.2907
 6031TIP3   OH239651   0.011   3.195   7.493 -0.8782 -0.2156  0.2787
 6031TIP3    H139652   0.035   3.154   7.410  1.1235 -0.5617  0.9672
 6031TIP3    H239653   0.026   3.288   7.480  0.6637 -0.3919  0.5851
 6032TIP3   OH239654   4.450   4.231   0.319  0.0223 -0.4334 -0.8716
 6032TIP3    H139655   4.459   4.312   0.269 -1.0890  1.0342  1.1382
 6032TIP3    H239656   4.537   4.192   0.320  0.0842 -0.5416 -3.8542
 6033TIP3   OH239657   6.254   2.717   1.018  0.5068  1.2751 -0.5093
 6033TIP3    H139658   6.254   2.775   1.094  2.0452  1.8178 -0.8812
 6033TIP3    H239659   6.322   2.753   0.961  1.1937 -0.6420 -0.9623
 6034TIP3   OH239660   0.575   0.639   7.828  0.2570 -0.0964 -0.0740
 6034TIP3    H139661   0.576   0.730   7.858 -0.9591 -0.9299  2.8739
 6034TIP3    H239662   0.647   0.598   7.874 -0.2357 -0.9762 -0.0753
 6035TIP3   OH239663   3.139   6.460   6.912  0.3216 -0.1118  0.7344
 6035TIP3    H139664   3.225   6.446   6.951  1.3898  2.1707 -0.5526
 6035TIP3    H239665   3.157   6.478   6.819 -1.7652 -1.6810 -0.0620
 6036TIP3   OH239666   2.727   6.059   1.969 -0.1310 -0.1367  0.0344
 6036TIP3    H139667   2.635   6.077   1.989  0.0427 -0.9465  1.8373
 6036TIP3    H239668   2.775   6.128   2.014  0.2530 -1.6627  2.1424
 6037TIP3   OH239669   2.668   0.060   0.009  0.3391  0.0080 -0.0243
 6037TIP3    H139670   2.674   0.147  -0.029  1.9699 -0.9035 -2.0576
 6037TIP3    H239671   2.597   0.017  -0.039 -0.0637  0.0133  0.5555
 6038TIP3   OH239672   4.153   5.603   2.362  0.1639 -0.5021 -0.3309
 6038TIP3    H139673   4.155   5.673   2.426  0.2051  0.3368 -1.2265
 6038TIP3    H239674   4.168   5.646   2.278 -2.2002 -1.1921 -1.2113
 6039TIP3   OH239675   4.513   2.331   2.430 -0.2496 -0.2285 -0.7203
 6039TIP3    H139676   4.474   2.249   2.400  0.3672 -0.5282 -0.7154
 6039TIP3    H239677   4.441   2.376   2.476 -0.7260 -0.5362 -1.1537
 6040TIP3   OH239678   4.750   0.754   2.331 -0.4659  0.1609 -0.4683
 6040TIP3    H139679   4.669   0.789   2.294 -0.9148 -0.6576 -0.2545
 6040TIP3    H239680   4.746   0.776   2.424 -0.0062  0.9219 -0.6096
 6041TIP3   OH239681   5.930   3.503   0.344  0.7269 -0.1371  0.1690
 6041TIP3    H139682   5.857   3.476   0.399  0.7589 -0.5905 -0.0033
 6041TIP3    H239683   5.985   3.424   0.337  0.6322 -0.1386 -0.6542
 6042TIP3   OH239684   0.052   1.888   7.897  0.0795 -0.7498 -0.4909
 6042TIP3    H139685   0.118   1.898   7.828 -0.8049 -0.0053 -1.2461
 6042TIP3    H239686   0.073   1.803   7.937  0.4275 -1.3608 -1.8842
 6043TIP3   OH239687   5.593   6.299   7.135  0.2408  0.1629 -0.3043
 6043TIP3    H139688   5.567   6.391   7.139 -1.2185 -0.1983 -0.7998
 6043TIP3    H239689   5.635   6.289   7.049  1.3374  0.5651  0.1621
 6044TIP3   OH239690   0.796   5.787   2.689 -0.2949  0.6649  0.4673
 6044TIP3    H139691   0.720   5.837   2.659 -1.6056 -1.4857 -0.0522
 6044TIP3    H239692   0.776   5.762   2.779 -0.4402 -0.2809  0.1879
 6045TIP3   OH239693   5.564   2.112   1.685  0.3563 -0.1827 -0.7501
 6045TIP3    H139694   5.632   2.087   1.748 -1.0109  0.0834  0.8936
 6045TIP3    H239695   5.554   2.207   1.696  1.1461  0.1526 -2.4986
 6046TIP3   OH239696   6.872   4.819   2.303  0.0549 -0.2752  0.1642
 6046TIP3    H139697   6.938   4.754   2.325 -1.0900 -0.8284  2.2560
 6046TIP3    H239698   6.820   4.828   2.383 -0.3817  2.5560 -0.3341
 6047TIP3   OH239699   1.129   2.447   1.718  0.2794 -0.3587 -0.3137
 6047TIP3    H139700   1.066   2.434   1.789  0.5474  0.1414  0.0240
 6047TIP3    H239701   1.164   2.360   1.701 -0.3565 -0.6092 -0.3679
 6048TIP3   OH239702   3.542   3.407   0.942  0.4326  0.0346  0.0911
 6048TIP3    H139703   3.558   3.490   0.898  5.8607 -0.9560 -0.5405
 6048TIP3    H239704   3.556   3.426   1.035  2.5422 -0.1538 -0.1302
 6049TIP3   OH239705   0.295   0.964   0.486 -0.1530  0.6078  0.0093
 6049TIP3    H139706   0.343   0.881   0.481  0.6755  1.0758 -0.0111
 6049TIP3    H239707   0.252   0.973   0.401  0.0054  0.3515 -0.0965
 6050TIP3   OH239708   3.055   1.945   7.846 -0.0400  0.6017  0.2890
 6050TIP3    H139709   3.041   1.952   7.752 -0.1234 -0.5373  0.1958
 6050TIP3    H239710   3.132   1.999   7.864  0.8310 -0.2838 -0.6730
 6051TIP3   OH239711   1.104   1.633   7.611 -0.3071 -0.1843 -0.3531
 6051TIP3    H139712   1.164   1.654   7.682  0.5304 -0.2406 -1.0285
 6051TIP3    H239713   1.035   1.699   7.616  1.3238  1.6776 -1.3383
 6052TIP3   OH239714   0.943   4.426   8.295 -0.2269  0.4188  0.4192
 6052TIP3    H139715   1.032   4.421   8.259  0.1289 -0.1841  1.3485
 6052TIP3    H239716   0.900   4.346   8.265 -0.4903  0.7371 -0.0775
 6053TIP3   OH239717   1.821   5.890   2.054 -0.2340  0.2152  0.1585
 6053TIP3    H139718   1.830   5.976   2.096 -1.9559 -0.1426  1.3956
 6053TIP3    H239719   1.813   5.828   2.127  0.4900 -0.9533 -0.7096
 6054TIP3   OH239720   4.986   4.237   1.741 -0.3813  0.0590 -0.0060
 6054TIP3    H139721   5.014   4.155   1.700 -0.2261 -0.5410  1.2697
 6054TIP3    H239722   4.899   4.253   1.704 -1.0304 -1.4519  0.7859
 6055TIP3   OH239723   4.787   5.161   8.012  0.0798 -0.5221  0.3360
 6055TIP3    H139724   4.716   5.115   8.057 -0.8670 -0.1441 -0.7295
 6055TIP3    H239725   4.757   5.170   7.922  1.6522 -0.6676 -0.2279
 6056TIP3   OH239726   0.545   6.426   0.731 -0.6912  0.0657  0.1744
 6056TIP3    H139727   0.629   6.421   0.775 -0.0029  1.0555 -0.9441
 6056TIP3    H239728   0.567   6.421   0.638 -1.8782  0.2030 -0.1259
 6057TIP3   OH239729   1.484   1.487   2.411  0.1132 -0.4572 -0.5377
 6057TIP3    H139730   1.424   1.550   2.451  0.8543 -0.4777  0.6629
 6057TIP3    H239731   1.447   1.402   2.433  0.5844 -0.4707  0.2413
 6058TIP3   OH239732   1.095   1.777   2.609 -0.2421  0.0971 -0.0005
 6058TIP3    H139733   1.037   1.753   2.537 -0.5553  1.0476 -0.0730
 6058TIP3    H239734   1.073   1.868   2.629  0.4325  0.1111  0.7301
 6059TIP3   OH239735   1.371   1.495   7.716  0.1467 -0.2708  0.4224
 6059TIP3    H139736   1.309   1.423   7.709  0.4697 -0.5087 -0.0190
 6059TIP3    H239737   1.383   1.527   7.627  1.0393 -0.5624  0.4214
 6060TIP3   OH239738   1.923   1.434   1.710 -0.4411  0.5417  0.3117
 6060TIP3    H139739   1.879   1.367   1.659  0.5391  0.9464 -1.1264
 6060TIP3    H239740   1.867   1.512   1.703 -1.2119  0.1128  1.3873
 6061TIP3   OH239741   5.059   6.107   1.818  0.5651 -0.4619  0.1747
 6061TIP3    H139742   5.102   6.171   1.875 -0.1660  1.6552 -1.5097
 6061TIP3    H239743   5.131   6.063   1.772  1.0844  1.3325 -0.8370
 6062TIP3   OH239744   0.078   4.463   8.357  0.0729  0.1335  0.5382
 6062TIP3    H139745   0.011   4.415   8.406 -1.6493  2.7426  0.9136
 6062TIP3    H239746   0.133   4.504   8.424  1.2541 -0.8775  0.2246
 6063TIP3   OH239747   6.766   5.802   0.679  0.0983 -0.4670  0.4615
 6063TIP3    H139748   6.752   5.851   0.760  0.3858  0.0987  0.1698
 6063TIP3    H239749   6.800   5.717   0.708  2.0184  0.3937  0.8586
 6064TIP3   OH239750   1.788   5.804   7.753  0.2952 -0.2958  0.0761
 6064TIP3    H139751   1.695   5.819   7.766  0.5394  0.7659  0.7402
 6064TIP3    H239752   1.795   5.769   7.664 -0.9282 -2.5050  0.7929
 6065TIP3   OH239753   5.026   5.339   2.062 -0.3958  0.0173 -0.1958
 6065TIP3    H139754   4.964   5.367   2.131 -1.0485 -1.1423 -0.2828
 6065TIP3    H239755   4.977   5.274   2.012  0.7155 -0.4886 -0.6366
 6066TIP3   OH239756   3.141   2.750   0.394  0.6413  0.2322  0.3004
 6066TIP3    H139757   3.214   2.784   0.446 -0.7547  0.5562  2.1317
 6066TIP3    H239758   3.106   2.826   0.348  0.9285  0.2205  0.0552
 6067TIP3   OH239759   0.114   4.913   2.098 -0.2768  0.0876 -0.1551
 6067TIP3    H139760   0.077   4.881   2.180  1.0956 -0.8379  0.1273
 6067TIP3    H239761   0.153   4.997   2.121  0.5644 -0.4098  0.2798
 6068TIP3   OH239762   6.496   0.655   7.678  0.2225  0.2773 -0.1862
 6068TIP3    H139763   6.426   0.659   7.743 -1.0955 -1.3520 -1.4131
 6068TIP3    H239764   6.552   0.583   7.707  0.2865  0.3087 -0.2302
 6069TIP3   OH239765   1.107   1.518   0.468 -0.3194  0.3117  0.4495
 6069TIP3    H139766   1.155   1.440   0.496 -0.2808 -0.3804 -1.4503
 6069TIP3    H239767   1.041   1.531   0.536  0.6980 -0.4020  1.6188
 6070TIP3   OH239768   1.433   6.655   7.650 -0.0035  0.8213  0.3154
 6070TIP3    H139769   1.467   6.623   7.733 -0.4808  0.1134  0.2467
 6070TIP3    H239770   1.358   6.710   7.673 -0.3866  0.2980  0.3424
 6071TIP3   OH239771   0.674   4.693   1.446 -0.0962 -0.2874 -0.3979
 6071TIP3    H139772   0.606   4.760   1.456 -0.6854 -0.8811 -0.3215
 6071TIP3    H239773   0.719   4.716   1.365 -1.1855 -0.5671 -1.1042
 6072TIP3   OH239774   2.293   0.168   7.701  0.1034 -0.4708  0.1210
 6072TIP3    H139775   2.365   0.230   7.696 -0.5265  0.1766 -1.1737
 6072TIP3    H239776   2.215   0.222   7.712 -0.4752 -1.0080 -1.2106
 6073TIP3   OH239777   4.788   6.392   0.209  0.2495 -0.1113  0.6518
 6073TIP3    H139778   4.705   6.346   0.222  0.5862 -0.8411  0.2454
 6073TIP3    H239779   4.851   6.323   0.190  0.4968  0.6122 -1.3444
 6074TIP3   OH239780   6.054   3.487   2.612  0.3802  0.2224 -0.0452
 6074TIP3    H139781   6.135   3.443   2.638 -0.0971  0.1187  1.3719
 6074TIP3    H239782   5.993   3.416   2.595 -0.1201  0.2837  1.3436
 6075TIP3   OH239783   0.698   6.837   1.973 -0.2926  0.3379  0.3224
 6075TIP3    H139784   0.749   6.793   1.904 -0.8800  1.7182 -1.0428
 6075TIP3    H239785   0.754   6.909   2.000 -0.2674  0.0758  0.9761
 6076TIP3   OH239786   6.336   3.962   8.110 -0.4837 -0.2581 -0.1008
 6076TIP3    H139787   6.425   3.993   8.124 -0.2260 -0.7225 -0.6697
 6076TIP3    H239788   6.313   3.995   8.023 -1.1192  0.4278  0.3137
 6077TIP3   OH239789   5.011   6.629   0.329 -0.2823 -0.3048 -0.2379
 6077TIP3    H139790   5.057   6.674   0.400 -0.0372  0.4212 -0.8467
 6077TIP3    H239791   4.918   6.646   0.346 -0.2063  0.1575 -0.2747
 6078TIP3   OH239792   4.805   1.947   7.955 -0.2218  0.1782 -0.1334
 6078TIP3    H139793   4.743   1.876   7.939 -0.8592  1.0719 -1.8845
 6078TIP3    H239794   4.824   1.942   8.049 -2.0690 -0.8071  0.2336
 6079TIP3   OH239795   3.943   3.080   2.193  0.0686 -0.1820  0.4717
 6079TIP3    H139796   3.955   2.993   2.156 -0.7535  0.4734 -1.4429
 6079TIP3    H239797   3.930   3.064   2.287 -0.7891 -2.1950  0.0702
 6080TIP3   OH239798   4.940   3.131   7.559 -0.0351  0.0827 -0.2474
 6080TIP3    H139799   5.003   3.183   7.509  0.5375 -0.9805 -0.6775
 6080TIP3    H239800   4.940   3.170   7.646 -0.7439  1.7172 -0.9471
 6081TIP3   OH239801   2.403   0.535   0.289  0.6448  0.1569  0.4639
 6081TIP3    H139802   2.377   0.445   0.307 -0.2288  0.0409 -1.1361
 6081TIP3    H239803   2.491   0.528   0.254  0.5649 -0.0830  0.3092
 6082TIP3   OH239804   4.159   1.859   0.425  0.1928  0.0539  0.4940
 6082TIP3    H139805   4.210   1.783   0.452 -0.2889  0.0361  1.4203
 6082TIP3    H239806   4.202   1.890   0.346  0.1504 -1.4235 -0.1383
 6083TIP3   OH239807   0.413   5.461   2.650 -0.0766 -0.5057 -0.3307
 6083TIP3    H139808   0.334   5.448   2.598  0.1981 -1.1264 -0.6059
 6083TIP3    H239809   0.383   5.504   2.730 -0.6559 -0.5102 -0.5442
 6084TIP3   OH239810   3.088   6.911   1.106 -0.6386 -0.0510  0.0476
 6084TIP3    H139811   3.008   6.909   1.053  0.1205 -2.6524 -1.1477
 6084TIP3    H239812   3.070   6.854   1.181 -0.7933  1.5384  1.2738
 6085TIP3   OH239813   1.723   3.005   1.232 -0.1245 -0.4885 -0.5089
 6085TIP3    H139814   1.791   3.070   1.215 -0.9531  0.3719 -0.6086
 6085TIP3    H239815   1.771   2.928   1.261  0.8251  0.5450  0.8021
 6086TIP3   OH239816   1.819   2.565   2.294 -0.1600  0.2123  0.0763
 6086TIP3    H139817   1.837   2.636   2.232  2.4354  0.1038  0.6003
 6086TIP3    H239818   1.858   2.595   2.376 -2.0058 -0.4052  1.2192
 6087TIP3   OH239819   0.521   1.489   2.454  0.4254 -0.7079  0.2751
 6087TIP3    H139820   0.521   1.395   2.471 -0.5458 -1.1615 -1.8519
 6087TIP3    H239821   0.492   1.528   2.536 -2.3377 -2.5281  0.3160
 6088TIP3   OH239822   5.855   4.269   0.875  0.2340  0.1055 -0.1502
 6088TIP3    H139823   5.849   4.202   0.807  1.1021 -1.0962  0.8989
 6088TIP3    H239824   5.941   4.309   0.860  0.5874 -0.4116  0.4250
 6089TIP3   OH239825   0.625   4.871   7.653 -0.1185 -0.0105  0.2821
 6089TIP3    H139826   0.673   4.882   7.571  1.3384  1.4812  1.2530
 6089TIP3    H239827   0.635   4.778   7.675 -4.1363 -1.5437 -3.2329
 6090TIP3   OH239828   2.232   1.756   1.417  0.5488 -0.0713  0.6596
 6090TIP3    H139829   2.287   1.808   1.358  2.2013 -0.5317  1.7168
 6090TIP3    H239830   2.227   1.670   1.376  0.9124 -0.1216  0.7166
 6091TIP3   OH239831   1.588   4.045   2.138 -0.0311  0.4401  0.1417
 6091TIP3    H139832   1.610   3.952   2.133 -0.6301  0.3366 -1.0258
 6091TIP3    H239833   1.500   4.050   2.100 -0.3831  1.3599  1.0589
 6092TIP3   OH239834   5.652   1.130   1.479 -0.1927  0.1548 -0.4386
 6092TIP3    H139835   5.704   1.091   1.409  0.4875 -0.8881  0.6210
 6092TIP3    H239836   5.707   1.198   1.515 -0.7466  1.0470 -1.2219
 6093TIP3   OH239837   1.068   5.852   1.803  0.1562  0.3169  0.0777
 6093TIP3    H139838   1.054   5.858   1.709 -0.3686 -1.7799 -0.0241
 6093TIP3    H239839   1.061   5.942   1.834 -1.2143  0.8654 -1.6636
 6094TIP3   OH239840   3.554   2.231   1.599 -0.2499  0.1096 -0.1907
 6094TIP3    H139841   3.578   2.321   1.621 -0.3945 -0.2865  1.8053
 6094TIP3    H239842   3.471   2.238   1.553  0.3687  1.0582 -1.2082
 6095TIP3   OH239843   1.076   4.004   1.389 -0.2726 -0.0494  0.3543
 6095TIP3    H139844   1.050   4.090   1.424  1.0686  0.4903  0.0730
 6095TIP3    H239845   1.065   3.944   1.462  0.0091  0.6002  0.9404
 6096TIP3   OH239846   5.658   5.776   8.424  0.0011  0.1433  0.6043
 6096TIP3    H139847   5.703   5.758   8.341 -0.9186 -0.9893  0.3355
 6096TIP3    H239848   5.664   5.694   8.473 -2.1016 -0.1800  0.3937
 6097TIP3   OH239849   3.690   3.369   8.487  0.0379 -0.3939 -0.1641
 6097TIP3    H139850   3.777   3.391   8.453 -0.2807 -0.0730 -0.7820
 6097TIP3    H239851   3.673   3.281   8.454  0.2825 -0.6102  0.2745
 6098TIP3   OH239852   4.636   1.262   7.318 -0.3099  0.0568  0.0036
 6098TIP3    H139853   4.589   1.183   7.289  0.9064 -0.7488  0.1341
 6098TIP3    H239854   4.567   1.325   7.339 -1.4450 -1.9216  2.6896
 6099TIP3   OH239855   4.063   6.914   2.766 -0.3269  0.8256 -0.0095
 6099TIP3    H139856   4.056   6.826   2.802  0.3334  0.1194 -1.5262
 6099TIP3    H239857   4.154   6.939   2.782 -0.3850  1.0435 -0.0187
 6100TIP3   OH239858   1.716   4.752   2.055 -0.0320  0.5221 -0.1071
 6100TIP3    H139859   1.643   4.695   2.080 -0.5982  1.2556 -0.0559
 6100TIP3    H239860   1.683   4.841   2.068  1.0135  0.8699  0.3270
 6101TIP3   OH239861   6.830   4.576   8.564  0.0877  0.0322 -0.4007
 6101TIP3    H139862   6.824   4.666   8.530  1.0696  0.0042 -0.6909
 6101TIP3    H239863   6.899   4.581   8.629  1.2024 -0.8082 -1.4713
 6102TIP3   OH239864   2.750   3.778   7.704 -0.1165  0.1466 -0.8454
 6102TIP3    H139865   2.796   3.826   7.635 -0.0874  1.1676 -0.1264
 6102TIP3    H239866   2.820   3.742   7.758 -0.1304  1.2741 -0.0444
 6103TIP3   OH239867   4.142   2.655   2.149 -0.0201  0.0774 -0.1294
 6103TIP3    H139868   4.164   2.683   2.237  0.7028 -0.8299 -0.0014
 6103TIP3    H239869   4.171   2.563   2.145 -1.1197 -0.2581 -0.9259
 6104TIP3   OH239870   1.276   5.100   8.165  0.3191  0.2656 -0.3045
 6104TIP3    H139871   1.195   5.077   8.212  0.7261  0.5470  0.5619
 6104TIP3    H239872   1.253   5.176   8.112 -0.4552 -0.7593 -1.4746
 6105TIP3   OH239873   5.570   1.074   7.837  0.5737  0.3536  0.5394
 6105TIP3    H139874   5.591   1.007   7.902 -1.2738 -0.3430  0.4605
 6105TIP3    H239875   5.487   1.111   7.867  0.5115  1.1520 -0.5619
 6106TIP3   OH239876   6.458   2.416   2.843  0.2698  0.0314  0.4807
 6106TIP3    H139877   6.429   2.462   2.764 -1.3167  1.7101  1.9541
 6106TIP3    H239878   6.392   2.348   2.857  1.4527 -1.3807 -0.4989
 6107TIP3   OH239879   4.869   5.863   0.475  0.8324 -0.0279 -0.0031
 6107TIP3    H139880   4.876   5.801   0.403  0.2197 -1.9165  1.4739
 6107TIP3    H239881   4.941   5.925   0.461  0.7785 -0.3781 -2.1456
 6108TIP3   OH239882   1.698   5.787   0.303 -0.1906 -0.0864  0.4682
 6108TIP3    H139883   1.783   5.797   0.261 -0.1431  0.7817  0.7605
 6108TIP3    H239884   1.719   5.772   0.395 -0.3630  0.3018  0.5693
 6109TIP3   OH239885   0.828   0.113   0.569  0.3510  0.4595  0.0137
 6109TIP3    H139886   0.799   0.201   0.544  0.5731  0.3736 -0.5712
 6109TIP3    H239887   0.923   0.118   0.565  0.3699 -0.3742 -2.1579
 6110TIP3   OH239888   1.565   6.261   8.540 -0.1346 -0.1380 -0.2147
 6110TIP3    H139889   1.595   6.300   8.622 -1.1681  1.9157 -0.7531
 6110TIP3    H239890   1.471   6.250   8.552 -0.0358 -1.5024 -0.5027
 6111TIP3   OH239891   2.238   1.837   3.395 -0.0156 -0.3327  0.5487
 6111TIP3    H139892   2.158   1.889   3.403 -0.7247 -1.4561  1.1492
 6111TIP3    H239893   2.295   1.889   3.339 -1.6262 -0.0174 -0.9070
 6112TIP3   OH239894   0.618   6.680   6.802 -0.1297  0.4913  0.5769
 6112TIP3    H139895   0.673   6.648   6.873 -0.4189 -0.6157  0.3301
 6112TIP3    H239896   0.671   6.668   6.723 -0.3979  0.2188  0.4355
 6113TIP3   OH239897   4.850   1.287   6.695  0.1619  0.1950  0.2043
 6113TIP3    H139898   4.784   1.243   6.748  0.8709  0.2180  1.1370
 6113TIP3    H239899   4.889   1.217   6.642  0.4109 -0.0872  0.7501
 6114TIP3   OH239900   6.626   3.732   0.413  0.0868 -0.3897  0.2126
 6114TIP3    H139901   6.547   3.705   0.458  0.0994  1.4893  1.4684
 6114TIP3    H239902   6.658   3.808   0.462  3.0786 -1.4738  0.1886
 6115TIP3   OH239903   4.846   0.343   7.961 -0.2198  0.5942 -0.6604
 6115TIP3    H139904   4.930   0.361   7.918  0.2500  2.2828  0.8380
 6115TIP3    H239905   4.859   0.259   8.005  0.0053 -0.0935 -1.9750
 6116TIP3   OH239906   6.129   6.738   8.491  0.5525  0.0463  0.2365
 6116TIP3    H139907   6.164   6.772   8.409 -1.7564  0.2952 -0.7465
 6116TIP3    H239908   6.172   6.654   8.504 -0.4843 -0.9845 -2.3955
 6117TIP3   OH239909   1.606   5.383   2.116  0.2882 -0.2185  0.4478
 6117TIP3    H139910   1.623   5.355   2.206  1.3278 -2.1417 -0.3026
 6117TIP3    H239911   1.638   5.473   2.113  2.8167 -0.9961  1.3187
 6118TIP3   OH239912   6.017   3.728   8.124  0.2106 -0.3072 -0.3627
 6118TIP3    H139913   6.071   3.779   8.184  0.7067  1.4211 -2.1862
 6118TIP3    H239914   5.934   3.718   8.170  0.6557  0.7229  0.7290
 6119TIP3   OH239915   1.378   4.604   7.904  0.1847  0.2967 -0.2548
 6119TIP3    H139916   1.455   4.656   7.928  0.5406  0.2656 -1.2735
 6119TIP3    H239917   1.374   4.611   7.808  0.5906 -2.0129 -0.4942
 6120TIP3   OH239918   2.791   2.327   8.075 -0.6332  0.3908  0.3250
 6120TIP3    H139919   2.737   2.338   8.153  0.8767  1.8303  1.2027
 6120TIP3    H239920   2.739   2.366   8.004 -1.6643 -0.2129  0.7300
 6121TIP3   OH239921   6.803   1.083   1.747 -0.2139  0.3768  0.5062
 6121TIP3    H139922   6.892   1.052   1.728 -0.0670  0.5969  0.8174
 6121TIP3    H239923   6.754   1.067   1.667 -0.1807 -0.7988  0.7031
 6122TIP3   OH239924   2.841   2.190   0.798  0.0998  0.0774  0.5882
 6122TIP3    H139925   2.876   2.263   0.746  1.8086 -0.4671  0.8976
 6122TIP3    H239926   2.794   2.233   0.870 -1.7443  0.8297 -0.9991
 6123TIP3   OH239927   1.095   4.525   1.357 -0.2295 -0.4957 -0.0504
 6123TIP3    H139928   1.190   4.538   1.364 -0.5059  1.5679  0.5138
 6123TIP3    H239929   1.077   4.531   1.263 -0.0598  1.5073  0.0077
 6124TIP3   OH239930   1.217   0.720   1.533 -0.0513 -0.4834 -0.1205
 6124TIP3    H139931   1.252   0.683   1.614  1.4219 -0.1767 -0.5866
 6124TIP3    H239932   1.174   0.801   1.561  1.9277  0.5321  0.2056
 6125TIP3   OH239933   0.937   1.874   1.919  0.3131 -0.0413  0.1709
 6125TIP3    H139934   0.892   1.929   1.855  1.0044  0.1740 -0.1446
 6125TIP3    H239935   1.023   1.857   1.880 -0.6270 -3.2752 -0.8381
 6126TIP3   OH239936   0.273   0.012   6.840 -0.6837  0.5036  0.7573
 6126TIP3    H139937   0.194   0.032   6.890 -0.3085  1.5623  0.9453
 6126TIP3    H239938   0.277   0.079   6.772  0.1352  0.5656  0.8541
 6127TIP3   OH239939   0.693   4.872   2.043  0.6213 -0.5082  0.0222
 6127TIP3    H139940   0.787   4.885   2.035  0.6227  0.3516  1.1101
 6127TIP3    H239941   0.683   4.781   2.071  1.0031 -1.1578 -1.8760
 6128TIP3   OH239942   4.363   4.991   2.064  0.2328 -0.4597 -0.1981
 6128TIP3    H139943   4.349   4.990   2.159  1.4487 -0.7212 -0.0010
 6128TIP3    H239944   4.416   5.070   2.048 -1.3298  0.4939 -0.8958
 6129TIP3   OH239945   2.460   3.974   0.522 -0.4849  0.1074  0.2969
 6129TIP3    H139946   2.509   3.992   0.442 -0.5492  0.2002  0.2783
 6129TIP3    H239947   2.407   4.053   0.536 -1.1773 -0.2804 -0.0858
 6130TIP3   OH239948   3.379   6.345   0.475 -0.2149  0.0949  0.1368
 6130TIP3    H139949   3.468   6.317   0.456  0.2150  1.5596 -0.0712
 6130TIP3    H239950   3.346   6.378   0.391 -1.4803 -1.7053 -0.1479
 6131TIP3   OH239951   2.850   0.754   1.789  0.4878 -0.0781 -0.1219
 6131TIP3    H139952   2.767   0.721   1.822  0.5795  0.0018  0.1966
 6131TIP3    H239953   2.843   0.849   1.797 -0.2303  0.0808 -2.1247
 6132TIP3   OH239954   0.932   4.469   0.101  0.0509  0.2965 -0.0580
 6132TIP3    H139955   0.867   4.443   0.166  0.5815  0.4740  0.5530
 6132TIP3    H239956   0.933   4.565   0.106 -0.1318  0.3291 -0.5598
 6133TIP3   OH239957   0.672   6.214   0.104 -0.4521 -0.2325 -0.0506
 6133TIP3    H139958   0.643   6.235   0.016  1.3346 -1.6372 -1.0506
 6133TIP3    H239959   0.725   6.290   0.131 -1.3430  0.3798  0.0115
 6134TIP3   OH239960   3.618   5.337   1.165  0.5986 -0.0983 -0.1463
 6134TIP3    H139961   3.566   5.414   1.141  1.9636  0.1819 -2.4791
 6134TIP3    H239962   3.563   5.289   1.228 -0.8358  2.0677  0.3464
 6135TIP3   OH239963   3.971   3.792   1.349 -0.4830 -0.0370 -0.0951
 6135TIP3    H139964   3.967   3.882   1.318 -0.0822  0.1272  0.3230
 6135TIP3    H239965   4.045   3.754   1.302  0.1841  0.2386  0.7103
 6136TIP3   OH239966   6.375   1.345   0.816 -0.5260 -0.1568 -0.1712
 6136TIP3    H139967   6.357   1.368   0.725 -1.2118 -0.4413 -0.1172
 6136TIP3    H239968   6.333   1.259   0.828  1.0847 -0.9733 -0.0882
 6137TIP3   OH239969   2.893   3.113   7.923  0.1133 -0.1433  0.1824
 6137TIP3    H139970   2.908   3.194   7.972 -0.8877  0.3242 -0.2568
 6137TIP3    H239971   2.924   3.044   7.982 -0.0108  0.4854  1.0076
 6138TIP3   OH239972   6.746   5.748   7.246 -0.4552  0.2676  0.3830
 6138TIP3    H139973   6.650   5.745   7.241 -0.5237  2.5857 -2.2066
 6138TIP3    H239974   6.768   5.841   7.239  2.0019 -0.3442 -1.2857
 6139TIP3   OH239975   6.052   2.959   6.801 -0.6317 -0.4233 -0.4520
 6139TIP3    H139976   5.995   2.950   6.878 -0.0968 -1.8761 -0.1838
 6139TIP3    H239977   5.994   2.947   6.726 -1.2724  1.6292 -0.3423
 6140TIP3   OH239978   0.188   1.856   7.379  0.2429  0.0906  0.2531
 6140TIP3    H139979   0.113   1.913   7.361 -0.7656 -1.3000 -0.1405
 6140TIP3    H239980   0.182   1.835   7.472 -1.5479 -2.2089 -0.2784
 6141TIP3   OH239981   1.537   5.834   8.041 -0.1673  0.4707  0.1219
 6141TIP3    H139982   1.598   5.773   8.082 -0.2595 -1.5992 -2.5496
 6141TIP3    H239983   1.451   5.806   8.072 -0.0733  0.5031  0.4156
 6142TIP3   OH239984   5.154   5.390   8.129  0.0082  0.0201 -0.1167
 6142TIP3    H139985   5.209   5.312   8.143  1.1021  0.9280  0.8502
 6142TIP3    H239986   5.099   5.368   8.053  0.5750 -1.5327 -0.1046
 6143TIP3   OH239987   0.155   5.852   2.326  0.7528  0.4151 -0.2543
 6143TIP3    H139988   0.158   5.815   2.414 -1.5686  1.2306  0.2527
 6143TIP3    H239989   0.104   5.789   2.275 -1.4825  1.8058  0.1094
 6144TIP3   OH239990   2.098   6.431   2.815  0.6295 -0.6561  0.4149
 6144TIP3    H139991   2.082   6.415   2.908  3.3686  0.3497  1.1605
 6144TIP3    H239992   2.035   6.499   2.792 -0.7363 -1.5957  1.2410
 6145TIP3   OH239993   2.498   4.241   0.909 -0.3440 -0.2756 -0.1881
 6145TIP3    H139994   2.510   4.219   1.002 -0.6981 -0.1293 -0.1084
 6145TIP3    H239995   2.587   4.242   0.874 -0.3076 -1.9215 -0.2212
 6146TIP3   OH239996   5.019   0.277   7.072 -0.3375 -0.2641  0.1637
 6146TIP3    H139997   5.112   0.295   7.057 -0.0872  0.6914  2.4677
 6146TIP3    H239998   4.985   0.256   6.985  2.1186 -1.1942 -0.6794
 6147TIP3   OH239999   2.006   6.469   3.091 -0.3821 -0.3414  0.1281
 6147TIP3    H140000   1.993   6.564   3.096  1.0345 -0.1674  0.8378
 6147TIP3    H240001   1.991   6.439   3.180  2.1389 -0.3498  0.6122
 6148TIP3   OH240002   3.681   3.622   7.560  0.0841  0.3413  0.0072
 6148TIP3    H140003   3.617   3.693   7.570  0.7746  1.1379 -0.9472
 6148TIP3    H240004   3.635   3.543   7.588 -1.9377  0.5799 -2.2953
 6149TIP3   OH240005   3.485   2.324   7.646  0.4692  0.6113  0.3630
 6149TIP3    H140006   3.523   2.237   7.654  0.0750  0.2663 -1.1326
 6149TIP3    H240007   3.532   2.364   7.572  0.5376  1.6188  0.9276
 6150TIP3   OH240008   5.205   2.436   1.373 -0.3785 -0.0091  0.6332
 6150TIP3    H140009   5.212   2.341   1.367  1.3725  0.1754 -1.1334
 6150TIP3    H240010   5.136   2.459   1.311  1.8935  0.0810 -2.0658
 6151TIP3   OH240011   2.067   2.269   7.889 -0.1454  0.0025 -0.2625
 6151TIP3    H140012   2.108   2.291   7.806  0.5938  1.8612  0.5303
 6151TIP3    H240013   2.109   2.327   7.953 -2.5404  0.5510  0.9527
 6152TIP3   OH240014   3.994   0.183   8.446  0.3039 -0.3623  0.0203
 6152TIP3    H140015   4.056   0.123   8.486  0.0366 -1.1127 -0.6625
 6152TIP3    H240016   3.919   0.183   8.506  1.1035  0.8837  1.0723
 6153TIP3   OH240017   5.149   2.988   2.197 -0.0241  0.0146 -0.0585
 6153TIP3    H140018   5.242   2.990   2.177 -0.1285 -1.2511 -0.7667
 6153TIP3    H240019   5.124   2.896   2.188 -1.5444  0.4722 -0.8928
 6154TIP3   OH240020   2.919   6.619   6.963 -0.3720  0.0055 -0.3170
 6154TIP3    H140021   2.866   6.556   7.011 -1.3146 -2.0316 -3.7458
 6154TIP3    H240022   3.001   6.573   6.945 -0.2492  0.5174 -1.1197
 6155TIP3   OH240023   6.169   0.973   1.673  0.0153  0.0524 -0.7014
 6155TIP3    H140024   6.253   0.929   1.679 -1.7826 -3.5920  0.7610
 6155TIP3    H240025   6.110   0.908   1.634 -3.1276  0.5962  2.6464
 6156TIP3   OH240026   2.926   5.518   1.138  0.1746 -0.0493  0.4115
 6156TIP3    H140027   2.881   5.447   1.092 -0.4253  0.3235  0.4094
 6156TIP3    H240028   3.000   5.540   1.082 -0.0551 -0.1855  0.0509
 6157TIP3   OH240029   0.795   3.789   8.453 -0.1203  0.6042  0.3995
 6157TIP3    H140030   0.871   3.802   8.396  0.7552 -1.0653  1.1344
 6157TIP3    H240031   0.811   3.846   8.528  0.4356  0.2501  0.5569
 6158TIP3   OH240032   0.038   5.713   1.057  0.1888 -0.2589  0.1856
 6158TIP3    H140033   0.091   5.780   1.013  1.0355  0.1637  1.7758
 6158TIP3    H240034  -0.031   5.691   0.994  0.7007  1.1261 -0.8938
 6159TIP3   OH240035   5.567   6.325   2.353 -0.5313 -0.5944 -0.5318
 6159TIP3    H140036   5.538   6.377   2.278 -1.3346  0.3322  0.3901
 6159TIP3    H240037   5.558   6.385   2.428  0.3990 -1.4432  0.2846
 6160TIP3   OH240038   4.325   6.454   2.511 -0.2706  0.0507 -0.0296
 6160TIP3    H140039   4.346   6.361   2.513 -2.3390 -0.4418  0.5763
 6160TIP3    H240040   4.247   6.460   2.456 -0.6063  1.3389  0.5584
 6161TIP3   OH240041   0.949   0.041   8.422  0.3976 -0.3067 -0.0343
 6161TIP3    H140042   0.918   0.095   8.494  2.0578  0.0597  0.4527
 6161TIP3    H240043   0.876  -0.017   8.402 -0.0606 -0.5086  2.0172
 6162TIP3   OH240044   0.331   0.069   7.842 -0.1271 -1.0855 -0.1803
 6162TIP3    H140045   0.324   0.051   7.936 -0.3805 -1.6211 -0.2971
 6162TIP3    H240046   0.360  -0.014   7.804  0.8864 -0.6102 -0.4670
 6163TIP3   OH240047   0.049   2.243   1.348 -0.0014 -0.1327 -0.4455
 6163TIP3    H140048   0.116   2.309   1.332 -0.1406  0.3576  0.8777
 6163TIP3    H240049   0.096   2.160   1.346  0.7719  0.2323  0.8951
 6164TIP3   OH240050   5.408   5.404   2.133 -0.1051  0.2476 -0.1983
 6164TIP3    H140051   5.412   5.385   2.227 -1.8062  3.1305  0.5780
 6164TIP3    H240052   5.348   5.478   2.126 -0.4846 -0.2188 -3.6656
 6165TIP3   OH240053   4.575   2.526   8.089 -0.1574  0.9214 -0.4103
 6165TIP3    H140054   4.653   2.514   8.143  0.5215 -0.1344 -1.5727
 6165TIP3    H240055   4.590   2.609   8.043 -0.2900  1.3247  0.2621
 6166TIP3   OH240056   6.614   1.595   1.488  0.2590  0.3095  0.2044
 6166TIP3    H140057   6.567   1.587   1.405  0.4051 -0.2559  0.1752
 6166TIP3    H240058   6.636   1.688   1.494  0.8916  0.2303 -0.7429
 6167TIP3   OH240059   0.882   5.621   0.098  0.1436 -0.0722  0.1059
 6167TIP3    H140060   0.902   5.584   0.012 -0.3203  0.1210 -0.0880
 6167TIP3    H240061   0.901   5.550   0.160 -0.7541 -0.6496 -0.2632
 6168TIP3   OH240062   5.279   0.579   0.693 -0.2867 -0.2247  0.3134
 6168TIP3    H140063   5.348   0.513   0.699  0.1179  0.0962 -0.6207
 6168TIP3    H240064   5.284   0.611   0.603  1.9667  3.6762  1.5845
 6169TIP3   OH240065   5.675   4.920   7.901  0.0150 -0.2423 -0.6286
 6169TIP3    H140066   5.666   4.858   7.973  0.3394 -0.0433 -0.4195
 6169TIP3    H240067   5.734   4.877   7.840  0.9488  0.2324 -0.0753
 6170TIP3   OH240068   1.022   5.214   1.313 -0.1149  0.1088  0.4894
 6170TIP3    H140069   1.018   5.288   1.374  0.3897 -0.6437  1.4656
 6170TIP3    H240070   1.112   5.214   1.282 -0.4736  0.7390 -0.6109
 6171TIP3   OH240071   2.306   3.321   7.759  0.3135 -0.2458  0.1954
 6171TIP3    H140072   2.291   3.387   7.692  0.7075  0.3804  0.7158
 6171TIP3    H240073   2.401   3.308   7.760  0.2136 -1.0777 -0.1419
 6172TIP3   OH240074   0.032   1.338   0.892 -0.3846  0.1796  0.0999
 6172TIP3    H140075  -0.003   1.409   0.838 -1.5272  0.2908  0.9500
 6172TIP3    H240076   0.126   1.356   0.896 -0.8179  2.6469  1.6035
 6173TIP3   OH240077   6.033   1.679   1.582  0.3637 -0.3105 -0.4737
 6173TIP3    H140078   5.957   1.660   1.637  0.5119 -0.6655 -0.3919
 6173TIP3    H240079   6.105   1.689   1.645  1.0822 -3.2226 -0.7151
 6174TIP3   OH240080   6.638   5.273   0.120 -0.1269 -0.5875  0.1762
 6174TIP3    H140081   6.547   5.277   0.151 -0.4237 -0.9782 -0.6313
 6174TIP3    H240082   6.686   5.236   0.194 -0.7519 -1.0978  0.3354
 6175TIP3   OH240083   1.454   4.296   1.658  0.4663 -0.2080  0.0492
 6175TIP3    H140084   1.393   4.246   1.712  0.8818 -1.0882 -0.2733
 6175TIP3    H240085   1.421   4.386   1.661 -0.1683 -0.4584  0.8233
 6176TIP3   OH240086   3.941   5.097   0.382  0.2901  0.0671 -0.1025
 6176TIP3    H140087   4.016   5.122   0.436  1.6495 -2.7532 -0.4931
 6176TIP3    H240088   3.868   5.091   0.443  0.6342  1.6483  0.5099
 6177TIP3   OH240089   2.700   1.532   7.877  0.0166 -0.3472 -0.5563
 6177TIP3    H140090   2.609   1.508   7.860  0.0593 -0.4329 -0.6588
 6177TIP3    H240091   2.701   1.627   7.869 -0.2033 -0.2827  0.0820
 6178TIP3   OH240092   0.394   3.341   0.033 -0.0284 -0.0093 -0.2978
 6178TIP3    H140093   0.411   3.413   0.093 -1.5726  0.5163 -0.4354
 6178TIP3    H240094   0.458   3.274   0.057 -0.3492  0.3213  1.6866
 6179TIP3   OH240095   5.847   3.016   7.900  0.5218 -0.0422 -0.8483
 6179TIP3    H140096   5.940   3.038   7.900  0.8417 -0.7250 -4.3307
 6179TIP3    H240097   5.803   3.099   7.883  0.8061 -0.1411 -2.2303
 6180TIP3   OH240098   3.943   0.328   1.194  0.6304  0.0043 -0.0114
 6180TIP3    H140099   3.983   0.272   1.128 -1.0388 -1.6808  0.3038
 6180TIP3    H240100   3.986   0.304   1.276  1.1447  0.4684 -0.1452
 6181TIP3   OH240101   2.230   2.643   1.806  0.2588 -0.1712 -0.4302
 6181TIP3    H140102   2.165   2.574   1.797 -0.1085 -0.1519  1.5056
 6181TIP3    H240103   2.184   2.723   1.781  0.4166 -0.4944 -1.8084
 6182TIP3   OH240104   5.317   0.871   1.398 -0.5485  0.2547 -0.0698
 6182TIP3    H140105   5.395   0.819   1.379 -0.9539  0.1871 -1.6816
 6182TIP3    H240106   5.351   0.952   1.436  0.2122 -0.2829  0.4409
 6183TIP3   OH240107   6.576   2.998   2.063  0.8894 -0.0886 -0.1460
 6183TIP3    H140108   6.572   3.039   2.150 -1.3657 -1.3139  0.4027
 6183TIP3    H240109   6.502   2.937   2.062  1.6087 -1.0174 -2.4916
 6184TIP3   OH240110   6.048   2.964   2.632 -0.3643 -0.1912 -0.3260
 6184TIP3    H140111   5.990   2.961   2.708 -0.1765  0.0684 -0.1744
 6184TIP3    H240112   5.991   2.988   2.559 -0.3892  0.3829 -0.1210
 6185TIP3   OH240113   0.330   4.503   1.722  0.4598  0.2096 -0.5331
 6185TIP3    H140114   0.293   4.419   1.750 -0.7495  0.6586 -0.7259
 6185TIP3    H240115   0.408   4.514   1.775  0.7285 -1.1256 -0.6258
 6186TIP3   OH240116   0.261   6.555   2.620  0.1551  0.4246 -0.0512
 6186TIP3    H140117   0.286   6.536   2.711 -2.2278  1.1501  0.8273
 6186TIP3    H240118   0.201   6.484   2.597  0.7125  0.2714 -1.0632
 6187TIP3   OH240119   0.707   4.373   0.212 -0.8677 -0.1380 -0.2192
 6187TIP3    H140120   0.688   4.454   0.259 -0.5110 -0.6673  0.8636
 6187TIP3    H240121   0.740   4.313   0.279  2.1149 -0.1351 -1.4975
 6188TIP3   OH240122   5.442   3.091   0.721  0.0607 -0.2103  0.2008
 6188TIP3    H140123   5.395   3.012   0.744 -1.0845  0.1890 -0.6820
 6188TIP3    H240124   5.401   3.121   0.640  1.3332  0.5720 -0.1899
 6189TIP3   OH240125   2.482   4.992   8.150  0.3081  0.6607  0.1700
 6189TIP3    H140126   2.435   4.919   8.110  0.5299  1.1658 -1.0521
 6189TIP3    H240127   2.574   4.976   8.127  0.3990  1.1307  0.2075
 6190TIP3   OH240128   1.968   1.652   1.525 -0.3913 -0.2601  0.2219
 6190TIP3    H140129   1.913   1.703   1.584 -0.5764 -1.5167  1.1885
 6190TIP3    H240130   2.058   1.681   1.543 -0.5660  0.3202  0.1470
 6191TIP3   OH240131   4.884   6.821   1.513 -0.2609  0.6833 -0.1215
 6191TIP3    H140132   4.805   6.800   1.562 -0.5956 -0.6870 -1.1964
 6191TIP3    H240133   4.862   6.900   1.463 -0.8407  0.5076 -0.1480
 6192TIP3   OH240134   0.363   0.047   0.774 -0.7669 -0.3116  0.6140
 6192TIP3    H140135   0.373   0.141   0.760 -1.4111  0.0940  2.5100
 6192TIP3    H240136   0.452   0.011   0.763 -0.5212  0.5016 -0.1354
 6193TIP3   OH240137   0.901   4.730   8.179 -0.6400  0.0728 -0.3555
 6193TIP3    H140138   0.928   4.648   8.138 -0.6145 -0.6802  1.1439
 6193TIP3    H240139   0.809   4.741   8.154 -0.1840  0.5022 -1.9815
 6194TIP3   OH240140   0.035   4.677   2.588  0.2192  0.0072  0.3275
 6194TIP3    H140141   0.029   4.585   2.614  1.1755 -0.2309 -0.2174
 6194TIP3    H240142  -0.055   4.702   2.568  0.0555 -1.1217 -0.4828
 6195TIP3   OH240143   3.265   5.858   1.728  0.0491 -0.4502 -0.4204
 6195TIP3    H140144   3.188   5.915   1.726 -0.0006 -0.5348 -1.0316
 6195TIP3    H240145   3.231   5.772   1.750 -0.1539 -0.6619 -1.4954
 6196TIP3   OH240146   3.692   1.189   1.620  0.8057  0.1767  0.5435
 6196TIP3    H140147   3.643   1.171   1.700  1.3376 -0.2506  0.7786
 6196TIP3    H240148   3.627   1.182   1.550  0.1494  1.3895  0.9934
 6197TIP3   OH240149   3.203   0.783   7.504 -0.4641 -0.0164 -0.2303
 6197TIP3    H140150   3.205   0.788   7.600  0.1282  1.0477 -0.2808
 6197TIP3    H240151   3.141   0.851   7.478 -2.1140 -1.5856 -0.5542
 6198TIP3   OH240152   2.090   5.443   1.300  0.0518  0.5963 -0.0076
 6198TIP3    H140153   2.112   5.362   1.253  0.4889 -0.0458  1.2763
 6198TIP3    H240154   2.000   5.463   1.272 -0.3851 -0.8122  0.3226
 6199TIP3   OH240155   3.321   6.714   0.430  1.0139  0.3063 -0.3187
 6199TIP3    H140156   3.244   6.770   0.443  1.3866  0.4968  1.3495
 6199TIP3    H240157   3.288   6.637   0.384  0.3669  1.5833 -2.1086
 6200TIP3   OH240158   6.452   6.251   2.688  0.2910 -0.3318 -0.6534
 6200TIP3    H140159   6.545   6.238   2.705  0.3913 -1.1205 -1.6942
 6200TIP3    H240160   6.421   6.304   2.762  1.4090 -0.6406  0.0591
 6201TIP3   OH240161   3.844   6.697   7.000 -0.3899 -0.1541 -0.4708
 6201TIP3    H140162   3.860   6.773   6.944  0.8021 -1.7509 -2.4488
 6201TIP3    H240163   3.755   6.669   6.977 -0.0251 -0.6131 -1.3874
 6202TIP3   OH240164   3.185   1.441   7.966  0.0916  0.4601 -0.0369
 6202TIP3    H140165   3.223   1.400   7.888  0.3814  0.5531  0.0556
 6202TIP3    H240166   3.092   1.418   7.962 -0.1329  1.4192 -1.0393
 6203TIP3   OH240167   3.986   1.974   2.221  0.2391  0.0041  0.9016
 6203TIP3    H140168   4.047   1.901   2.227  1.7524  0.9857 -1.2443
 6203TIP3    H240169   4.032   2.047   2.261 -0.1166  0.4328  0.5333
 6204TIP3   OH240170   0.118   5.363   7.290  0.5842 -0.6559 -0.5322
 6204TIP3    H140171   0.094   5.279   7.253 -1.9497 -0.4861  0.5405
 6204TIP3    H240172   0.086   5.428   7.227  1.5973 -0.4554 -0.8556
 6205TIP3   OH240173   1.939   3.054   2.299 -0.1862 -0.1150  0.3285
 6205TIP3    H140174   1.974   3.042   2.387  1.0978 -0.8208 -0.2568
 6205TIP3    H240175   1.868   2.991   2.293  0.9796 -1.4467  0.2142
 6206TIP3   OH240176   3.811   6.091   0.661 -0.5572 -0.0925 -0.8566
 6206TIP3    H140177   3.786   6.106   0.752 -2.1386  1.4702 -1.5027
 6206TIP3    H240178   3.900   6.056   0.667 -0.0039  1.4612  1.2313
 6207TIP3   OH240179   2.267   4.033   1.096 -0.0647 -0.3914 -0.0617
 6207TIP3    H140180   2.262   3.975   1.172 -1.1435 -1.2302 -0.7589
 6207TIP3    H240181   2.322   4.105   1.126  0.2461 -1.1291  1.2380
 6208TIP3   OH240182   6.876   0.740   1.772  0.6111 -0.6275 -0.0216
 6208TIP3    H140183   6.810   0.747   1.702  0.5708 -0.1051  0.0677
 6208TIP3    H240184   6.941   0.806   1.750 -0.0383  0.4279  1.1176
 6209TIP3   OH240185   5.908   6.133   1.333 -0.3107  0.2004  0.3030
 6209TIP3    H140186   5.987   6.131   1.279 -1.0270  1.3449 -0.8240
 6209TIP3    H240187   5.934   6.181   1.411  0.8013 -1.6720  1.1692
 6210TIP3   OH240188   3.621   0.476   1.953  0.1102  0.9306  0.4166
 6210TIP3    H140189   3.604   0.564   1.984  0.8679  1.0359  0.5510
 6210TIP3    H240190   3.632   0.485   1.858 -2.4456  0.5730  0.0229
 6211TIP3   OH240191   0.354   3.830   0.470 -0.0809  0.4833 -0.1144
 6211TIP3    H140192   0.397   3.826   0.385 -1.8633 -3.1429 -1.0354
 6211TIP3    H240193   0.418   3.794   0.531 -0.0488 -0.2538 -0.5757
 6212TIP3   OH240194   6.317   4.005   7.832  0.1981  0.2578 -0.9023
 6212TIP3    H140195   6.294   3.958   7.753  1.3543  2.1546 -2.4667
 6212TIP3    H240196   6.286   4.094   7.817  1.4752  0.9426  0.2783
 6213TIP3   OH240197   1.174   1.431   6.642 -0.5135  0.6739  0.4713
 6213TIP3    H140198   1.203   1.508   6.692  0.4465  1.4702 -1.2298
 6213TIP3    H240199   1.100   1.463   6.590  0.1568  0.5994 -0.5617
 6214TIP3   OH240200   4.679   1.133   6.878 -0.2014 -0.1469  0.5401
 6214TIP3    H140201   4.650   1.060   6.824  0.0752 -0.2443  0.5247
 6214TIP3    H240202   4.603   1.192   6.881 -1.0377 -1.2090  1.9176
 6215TIP3   OH240203   0.903   1.848   7.591 -0.2702 -0.0462 -0.0016
 6215TIP3    H140204   0.825   1.794   7.579  0.6363 -1.6746  1.0426
 6215TIP3    H240205   0.869   1.931   7.626 -1.6240 -0.2479 -0.7795
 6216TIP3   OH240206   4.999   4.388   7.634 -0.6875  0.0427 -0.3383
 6216TIP3    H140207   4.917   4.434   7.653 -1.8288 -2.2059  0.5496
 6216TIP3    H240208   4.973   4.296   7.625  1.9428 -1.0216  1.6705
 6217TIP3   OH240209   2.165   5.825   1.370  0.2997  0.1555 -0.1010
 6217TIP3    H140210   2.226   5.751   1.378  0.8045  0.4462 -1.1169
 6217TIP3    H240211   2.184   5.863   1.284 -1.1586  0.4139 -0.3318
 6218TIP3   OH240212   0.785   0.924   0.324 -0.4482  0.6576  0.8200
 6218TIP3    H140213   0.788   0.925   0.228  1.0165  0.9151  0.8586
 6218TIP3    H240214   0.814   1.012   0.350 -0.3333  0.4188  1.5096
 6219TIP3   OH240215   1.087   5.795   2.281  0.0773  0.5041 -0.7679
 6219TIP3    H140216   1.100   5.717   2.228  0.6110  0.3820 -0.4631
 6219TIP3    H240217   0.993   5.797   2.298 -0.0257  0.2676 -1.2878
 6220TIP3   OH240218   4.663   4.960   6.896 -0.2348 -0.1261  0.3502
 6220TIP3    H140219   4.616   4.918   6.969 -2.0415  0.6443 -0.3063
 6220TIP3    H240220   4.639   4.909   6.819 -0.4998  0.6465 -0.0937
 6221TIP3   OH240221   2.744   0.123   8.277  0.2214 -0.4220 -0.3748
 6221TIP3    H140222   2.744   0.029   8.296  2.1451 -0.0701  1.9380
 6221TIP3    H240223   2.652   0.148   8.279 -0.1778 -1.7309  2.3480
 6222TIP3   OH240224   1.883   6.497   8.015 -0.1693  0.4101  0.6004
 6222TIP3    H140225   1.914   6.494   8.105 -2.2372 -2.6089  1.3257
 6222TIP3    H240226   1.901   6.410   7.979  1.0276  1.6455 -2.1543
 6223TIP3   OH240227   2.796   5.623   7.051  0.1333 -0.1231  0.4921
 6223TIP3    H140228   2.701   5.634   7.062  0.2873  1.2487  0.6424
 6223TIP3    H240229   2.807   5.607   6.957 -0.1673  0.7807  0.2938
 6224TIP3   OH240230   1.354   0.407   8.355 -0.2305  0.0137  0.3242
 6224TIP3    H140231   1.425   0.375   8.299 -0.5373 -1.5313  0.7576
 6224TIP3    H240232   1.341   0.498   8.328  0.8799 -0.1334 -0.8168
 6225TIP3   OH240233   3.963   0.811   0.021  0.1984  0.0356 -0.2282
 6225TIP3    H140234   4.020   0.864   0.076  1.6657 -1.8570  0.1843
 6225TIP3    H240235   4.018   0.739  -0.009 -0.9797  0.1578 -2.9555
 6226TIP3   OH240236   3.193   4.410   1.056 -0.0075  0.2372 -0.5270
 6226TIP3    H140237   3.124   4.471   1.030 -0.9311 -0.2453  0.7063
 6226TIP3    H240238   3.270   4.464   1.069  0.3087  0.6267 -3.3574
 6227TIP3   OH240239   0.488   6.478   8.296  0.1183  0.1068 -0.1707
 6227TIP3    H140240   0.461   6.569   8.300  2.7051  0.9026  2.1739
 6227TIP3    H240241   0.521   6.466   8.207 -0.7569  1.2501 -0.6707
 6228TIP3   OH240242   4.765   0.848   1.220  0.0351  0.4013  0.1892
 6228TIP3    H140243   4.733   0.811   1.302 -0.4044 -1.9654 -0.9702
 6228TIP3    H240244   4.859   0.829   1.220  0.0645  0.5453  0.2098
 6229TIP3   OH240245   1.347   6.779   1.213  0.1644  0.0364 -0.2210
 6229TIP3    H140246   1.324   6.746   1.126  2.1407  2.3760 -1.7794
 6229TIP3    H240247   1.438   6.751   1.226 -0.5547 -1.6211  1.8929
 6230TIP3   OH240248   2.197   0.066   1.234  0.1341  0.0478  0.1814
 6230TIP3    H140249   2.134   0.119   1.183 -1.2254 -0.2618  1.4657
 6230TIP3    H240250   2.211   0.116   1.314  0.8852 -0.2917  0.2656
 6231TIP3   OH240251   6.227   0.269   0.965  0.1353 -0.5202 -0.0027
 6231TIP3    H140252   6.291   0.307   0.904  0.8937 -1.8430 -0.0825
 6231TIP3    H240253   6.210   0.338   1.028 -0.0010  0.5904 -1.2070
 6232TIP3   OH240254   5.433   3.039   0.257  0.4416 -0.8025  0.5390
 6232TIP3    H140255   5.456   3.112   0.314 -0.6692  0.4911 -0.6029
 6232TIP3    H240256   5.505   3.034   0.195 -0.8392  1.3936 -1.2744
 6233TIP3   OH240257   3.373   0.492   0.391 -0.6646 -0.2669 -0.3991
 6233TIP3    H140258   3.304   0.525   0.334  1.2339  2.0737 -1.5193
 6233TIP3    H240259   3.417   0.571   0.424  1.8912 -1.6176 -0.3051
 6234TIP3   OH240260   4.944   2.296   1.621 -0.1355  0.6755 -0.5167
 6234TIP3    H140261   4.851   2.275   1.619 -0.0977  0.5411 -1.3164
 6234TIP3    H240262   4.984   2.233   1.561  0.6475 -0.0800  0.7601
 6235TIP3   OH240263   4.374   5.726   2.874 -0.2466 -0.3646  0.0893
 6235TIP3    H140264   4.332   5.663   2.933 -0.5157 -1.5226 -1.3035
 6235TIP3    H240265   4.302   5.777   2.838 -0.1057  0.1573  0.5364
 6236TIP3   OH240266   5.943   4.717   0.136  0.4179 -0.1993  0.0144
 6236TIP3    H140267   5.987   4.762   0.064  0.9758  0.6790  0.8751
 6236TIP3    H240268   5.910   4.788   0.191 -2.2306 -0.8070 -0.6477
 6237TIP3   OH240269   1.515   4.935   2.944  0.2699 -0.0421 -0.1266
 6237TIP3    H140270   1.595   4.885   2.927 -0.8415 -2.2264  0.7039
 6237TIP3    H240271   1.444   4.871   2.937 -1.1050  0.9647  2.8947
 6238TIP3   OH240272   6.046   6.282   1.540 -0.2052  0.2560  0.4498
 6238TIP3    H140273   6.114   6.311   1.600  0.5170  1.3147 -0.8074
 6238TIP3    H240274   5.966   6.280   1.592  0.1796  2.2420  1.2020
 6239TIP3   OH240275   4.574   1.747   8.584  0.2905  0.1783  0.1328
 6239TIP3    H140276   4.556   1.811   8.516  0.8597 -0.9399 -1.1049
 6239TIP3    H240277   4.656   1.776   8.624 -0.9199  1.8375  1.6351
 6240TIP3   OH240278   4.301   5.800   0.560 -0.0158  0.0373  0.1653
 6240TIP3    H140279   4.230   5.836   0.613 -1.2938 -1.8420 -0.1835
 6240TIP3    H240280   4.333   5.725   0.609  0.9802  0.1727 -0.2382
 6241TIP3   OH240281   1.990   0.219   1.143  0.4909 -0.5453 -0.2260
 6241TIP3    H140282   1.935   0.155   1.097  0.7693 -0.3921 -0.7789
 6241TIP3    H240283   1.933   0.255   1.211 -0.0243 -0.5541 -0.6433
 6242TIP3   OH240284   2.054   3.198   8.157  0.4591  0.2378 -0.0936
 6242TIP3    H140285   2.124   3.147   8.199  1.7532  1.0858 -1.1379
 6242TIP3    H240286   1.999   3.226   8.230  0.1791 -1.8934  0.5865
 6243TIP3   OH240287   6.785   3.987   0.993 -0.3553  0.0719 -0.2181
 6243TIP3    H140288   6.764   3.933   0.917 -0.8933  1.5331 -1.1540
 6243TIP3    H240289   6.836   4.060   0.957 -1.9727  1.6430  0.5396
 6244TIP3   OH240290   2.460   0.547   3.156  0.0820  0.0236  0.2404
 6244TIP3    H140291   2.457   0.635   3.191  0.8074  0.0754  0.1986
 6244TIP3    H240292   2.379   0.505   3.186  0.7326  0.0177  2.0885
 6245TIP3   OH240293   4.895   1.422   1.227 -0.2703  0.3585 -0.5149
 6245TIP3    H140294   4.882   1.332   1.196 -2.5114 -0.1426  1.5680
 6245TIP3    H240295   4.830   1.473   1.179 -0.7573  0.3781  0.1589
 6246TIP3   OH240296   0.509   6.765   0.006  0.2141  0.4132 -0.0070
 6246TIP3    H140297   0.467   6.773  -0.080 -1.2077  3.0742  0.8301
 6246TIP3    H240298   0.582   6.705  -0.009 -1.6751 -1.5017 -2.3812
 6247TIP3   OH240299   0.696   0.306   2.975  0.0756  0.6481  0.2495
 6247TIP3    H140300   0.601   0.289   2.969 -0.4145  1.9247  3.0349
 6247TIP3    H240301   0.731   0.229   3.020  0.6354 -0.3540 -1.7720
 6248TIP3   OH240302   3.057   0.183   0.861  0.2482  0.2023  0.4620
 6248TIP3    H140303   3.117   0.116   0.828  0.0794 -0.5295  1.5794
 6248TIP3    H240304   3.007   0.210   0.785  0.6911 -0.5629 -0.1145
 6249TIP3   OH240305   6.472   4.453   1.647 -0.4172 -0.3484 -0.2536
 6249TIP3    H140306   6.519   4.394   1.705  1.3657  1.9090  0.7885
 6249TIP3    H240307   6.416   4.504   1.705 -0.5014  0.2588 -0.8510
 6250TIP3   OH240308   1.856   2.827   2.538  0.4591 -0.0317  0.7577
 6250TIP3    H140309   1.931   2.781   2.576  1.3718  0.3859 -0.4770
 6250TIP3    H240310   1.823   2.882   2.609  0.0921 -1.6539  1.9069
 6251TIP3   OH240311   4.881   4.085   7.973  0.6020  0.4582 -0.1319
 6251TIP3    H140312   4.816   4.113   8.038  0.3508  3.3884 -1.4677
 6251TIP3    H240313   4.849   4.121   7.891  1.6629 -1.8939 -1.6723
 6252TIP3   OH240314   0.320   3.835   7.492  0.0722  0.0028  0.5856
 6252TIP3    H140315   0.308   3.929   7.504 -0.4514  0.1938 -1.0935
 6252TIP3    H240316   0.231   3.801   7.487  0.2174 -0.2089 -1.1425
 6253TIP3   OH240317   6.261   5.231   3.112  0.5436 -0.1539  0.4397
 6253TIP3    H140318   6.168   5.250   3.118 -0.0371 -1.6436 -2.3556
 6253TIP3    H240319   6.266   5.136   3.100  2.4106 -0.0854  0.3005
 6254TIP3   OH240320   2.366   1.103   0.719 -0.3956  0.2303 -0.2329
 6254TIP3    H140321   2.330   1.041   0.655  0.7513  0.1072 -0.7716
 6254TIP3    H240322   2.317   1.184   0.703 -0.9160 -0.1236 -0.4798
 6255TIP3   OH240323   5.892   1.721   1.317  0.0850  0.1099  0.4142
 6255TIP3    H140324   5.883   1.637   1.271  2.2811  0.4008 -0.6988
 6255TIP3    H240325   5.906   1.698   1.408  0.3982 -0.7464  0.1558
 6256TIP3   OH240326   6.625   1.539   7.488  0.5881  0.4759 -0.2793
 6256TIP3    H140327   6.678   1.539   7.568  2.0365  0.2694 -1.1847
 6256TIP3    H240328   6.541   1.576   7.514  1.0173  0.3871  1.3333
 6257TIP3   OH240329   1.552   4.378   7.004 -0.1805  0.1336 -0.3961
 6257TIP3    H140330   1.521   4.431   6.930 -0.9387 -1.4439 -1.2687
 6257TIP3    H240331   1.485   4.389   7.071  0.5108  1.5755  0.0889
 6258TIP3   OH240332   6.792   6.338   8.157 -0.5785  0.0343  0.1284
 6258TIP3    H140333   6.848   6.377   8.223 -1.2306  0.8322  0.2296
 6258TIP3    H240334   6.767   6.252   8.193  1.5157 -0.8821 -0.4518
 6259TIP3   OH240335   0.117   0.093   2.833  0.6550 -0.0025  0.1886
 6259TIP3    H140336   0.107   0.003   2.864  0.8281 -0.0743  0.0402
 6259TIP3    H240337   0.049   0.142   2.878  0.4378 -0.2457  0.1239
 6260TIP3   OH240338   4.099   2.041   1.661 -0.2822 -0.3445  0.5496
 6260TIP3    H140339   4.189   2.063   1.683 -0.2418  1.2237 -0.9679
 6260TIP3    H240340   4.072   1.978   1.727  1.5276  0.0937  1.7503
 6261TIP3   OH240341   1.416   5.144   2.197  0.8144 -0.0889  0.5611
 6261TIP3    H140342   1.468   5.073   2.158  2.8325  0.5889  1.8420
 6261TIP3    H240343   1.453   5.154   2.285 -0.3827  1.5968  0.9112
 6262TIP3   OH240344   4.920   6.394   7.356  0.3226  0.2627  0.2922
 6262TIP3    H140345   4.879   6.381   7.270  0.4177  0.9787  0.1378
 6262TIP3    H240346   4.920   6.488   7.369  1.6176  0.2490  0.4529
 6263TIP3   OH240347   4.155   0.076   0.951  0.4650 -0.4715 -0.0913
 6263TIP3    H140348   4.063   0.054   0.938  0.2311  0.1010  0.4733
 6263TIP3    H240349   4.157   0.172   0.949  0.7988 -0.4167  1.3081
 6264TIP3   OH240350   5.955   0.882   8.423  0.2273 -0.4484  0.3526
 6264TIP3    H140351   5.907   0.799   8.419 -0.5812 -0.0095  0.6631
 6264TIP3    H240352   5.974   0.903   8.332 -0.8159 -0.2788  0.1604
 6265TIP3   OH240353   1.880   5.066   1.681 -0.2726  0.2977  0.1220
 6265TIP3    H140354   1.971   5.036   1.689 -0.6419 -0.5287  1.5584
 6265TIP3    H240355   1.886   5.144   1.626  1.4718  1.0157  1.2324
 6266TIP3   OH240356   2.332   5.653   0.727  0.1174  0.5814  0.4222
 6266TIP3    H140357   2.257   5.704   0.697 -0.0069  0.8159  1.1114
 6266TIP3    H240358   2.371   5.706   0.796  0.5466  0.1730  0.4972
 6267TIP3   OH240359   4.692   4.452   3.060  0.4850  0.4019  0.1870
 6267TIP3    H140360   4.752   4.511   3.014  0.5199  1.0065  0.9872
 6267TIP3    H240361   4.704   4.368   3.016 -0.2643  1.1656 -1.6230
 6268TIP3   OH240362   2.417   0.477   1.571  0.1096  0.1168  0.4031
 6268TIP3    H140363   2.476   0.518   1.507  1.5298 -0.0684  1.5518
 6268TIP3    H240364   2.339   0.532   1.570 -0.0102 -0.0172 -1.6535
 6269TIP3   OH240365   3.226   2.308   1.640  0.1353 -0.3929 -0.0862
 6269TIP3    H140366   3.316   2.294   1.670  0.1280  1.6024  1.0565
 6269TIP3    H240367   3.221   2.262   1.557  1.1790 -3.4319  1.3836
 6270TIP3   OH240368   2.548   6.241   1.709 -0.1014  0.7982  0.3046
 6270TIP3    H140369   2.553   6.235   1.804 -0.9878 -0.3916  0.2965
 6270TIP3    H240370   2.607   6.173   1.677  1.6871  2.4349 -0.0576
 6271TIP3   OH240371   2.774   4.855   0.957 -0.1583 -0.3509  0.2367
 6271TIP3    H140372   2.808   4.933   0.913  0.3155  0.0768  1.3316
 6271TIP3    H240373   2.852   4.802   0.975 -0.2946 -0.2895  1.0040
 6272TIP3   OH240374   4.866   2.869   1.776  0.0901 -0.0084  0.5163
 6272TIP3    H140375   4.826   2.867   1.689  0.1283 -0.4219  0.5081
 6272TIP3    H240376   4.957   2.893   1.760 -0.2751  1.5412  0.5854
 6273TIP3   OH240377   6.561   2.718   0.256 -0.0979 -0.2653  0.4251
 6273TIP3    H140378   6.652   2.696   0.274 -0.3411 -2.6713 -0.9123
 6273TIP3    H240379   6.517   2.634   0.245 -1.7153  0.7886 -2.5344
 6274TIP3   OH240380   5.449   2.235   2.502  0.3440  0.0282 -0.2451
 6274TIP3    H140381   5.420   2.229   2.411 -1.1608  1.1378  0.1295
 6274TIP3    H240382   5.433   2.147   2.538 -0.9708  0.1416 -0.5223
 6275TIP3   OH240383   2.195   4.257   1.892 -0.4005 -0.1914 -0.4618
 6275TIP3    H140384   2.111   4.213   1.903 -1.2911  1.8927  2.0178
 6275TIP3    H240385   2.248   4.228   1.966  0.7869 -0.7744 -1.4942
 6276TIP3   OH240386   4.884   3.820   1.174 -0.0721  0.1598 -0.3068
 6276TIP3    H140387   4.816   3.834   1.239 -0.0047  0.3296 -0.2730
 6276TIP3    H240388   4.883   3.900   1.120 -1.4331 -0.7458 -1.7134
 6277TIP3   OH240389   5.486   3.730   7.981 -0.7065  0.1606  0.1702
 6277TIP3    H140390   5.435   3.651   8.001 -0.2055 -0.1640  0.1807
 6277TIP3    H240391   5.420   3.799   7.974 -1.1998 -0.3390 -0.2857
 6278TIP3   OH240392   0.670   6.094   2.342  0.5444  0.0380 -0.5845
 6278TIP3    H140393   0.759   6.067   2.365  0.9570  1.2923 -0.6367
 6278TIP3    H240394   0.680   6.182   2.305 -0.8316  0.6553  0.4058
 6279TIP3   OH240395   1.490   3.477   6.844  0.3348  0.0937 -0.2106
 6279TIP3    H140396   1.580   3.483   6.812 -0.0093  0.7324 -1.1049
 6279TIP3    H240397   1.470   3.567   6.872 -0.1389  0.0272 -0.3407
 6280TIP3   OH240398   0.999   6.375   1.366  0.6399  0.1355  0.1833
 6280TIP3    H140399   1.070   6.377   1.303 -0.1122  0.9437 -0.6565
 6280TIP3    H240400   0.966   6.285   1.362  0.4979  0.2217 -0.7015
 6281TIP3   OH240401   2.990   6.121   0.044 -0.1065 -0.1328 -0.4559
 6281TIP3    H140402   2.977   6.181   0.117  1.1533  0.8202 -0.9729
 6281TIP3    H240403   3.002   6.035   0.085 -0.6441  0.1808  0.3780
 6282TIP3   OH240404   3.223   5.639   0.098 -0.0763 -0.6407 -0.6210
 6282TIP3    H140405   3.277   5.716   0.119 -1.2394  0.1315 -0.3797
 6282TIP3    H240406   3.253   5.572   0.159 -0.7972  0.4259  0.9768
 6283TIP3   OH240407   3.356   5.458   0.257 -0.4440 -0.4535  0.6660
 6283TIP3    H140408   3.403   5.443   0.339 -0.7080 -1.0325  0.7199
 6283TIP3    H240409   3.419   5.503   0.200 -0.1194 -0.4336  1.0380
 6284TIP3   OH240410   0.551   6.021   0.242  0.0603  0.0574 -0.6473
 6284TIP3    H140411   0.604   6.089   0.202 -0.6052 -0.0166 -1.6828
 6284TIP3    H240412   0.470   6.065   0.268  1.6054  0.8497  3.5537
 6285TIP3   OH240413   5.529   0.208   1.008 -0.4339  0.0363  0.1062
 6285TIP3    H140414   5.513   0.300   0.988  0.8049  0.7557  2.1116
 6285TIP3    H240415   5.451   0.180   1.055 -0.5863  0.2094 -0.0398
 6286TIP3   OH240416   3.703   5.507   1.604  0.3803  0.0966  0.3189
 6286TIP3    H140417   3.616   5.527   1.636  0.0901  0.1665 -0.4820
 6286TIP3    H240418   3.726   5.423   1.643 -1.0579 -1.1479 -1.3732
 6287TIP3   OH240419   0.427   3.052   1.073  0.1104 -0.3225  0.6089
 6287TIP3    H140420   0.345   3.078   1.115  0.2521 -1.7795  1.8597
 6287TIP3    H240421   0.405   2.971   1.026 -0.4305  1.9574 -3.5767
 6288TIP3   OH240422   6.825   3.604   8.540 -0.3996 -0.2598  0.2336
 6288TIP3    H140423   6.818   3.556   8.623  0.4414  1.5127  1.3805
 6288TIP3    H240424   6.913   3.583   8.508 -0.1491  0.2289  0.5803
 6289TIP3   OH240425   1.313   4.046   0.198  0.2353 -0.0580 -0.3988
 6289TIP3    H140426   1.273   4.005   0.275  1.6509  1.9386  1.5187
 6289TIP3    H240427   1.384   3.986   0.174  1.8729  0.7950  1.9595
 6290TIP3   OH240428   0.959   6.030   2.425 -1.1840  0.6202  0.0057
 6290TIP3    H140429   1.032   5.980   2.387  0.1204  2.0825  0.4611
 6290TIP3    H240430   0.998   6.075   2.500 -3.2376 -0.7340  2.0392
 6291TIP3   OH240431   0.865   5.737   8.361  0.1506 -0.2739 -0.7715
 6291TIP3    H140432   0.943   5.699   8.321  1.6380  1.2165  0.5342
 6291TIP3    H240433   0.893   5.825   8.389 -2.2688  0.6933 -1.0958
 6292TIP3   OH240434   1.468   4.009   7.533 -0.7098  0.3024 -0.0548
 6292TIP3    H140435   1.398   4.011   7.598 -2.2026 -1.2471 -1.5213
 6292TIP3    H240436   1.473   3.917   7.506  1.6443  0.4348 -0.3022
 6293TIP3   OH240437   6.029   6.501   1.382  0.1300  0.6162  0.3329
 6293TIP3    H140438   5.935   6.515   1.373  0.1974  0.4099 -1.0320
 6293TIP3    H240439   6.037   6.419   1.430 -0.3278  1.8590  2.6946
 6294TIP3   OH240440   1.395   1.447   1.398 -0.0098  0.5097  0.6948
 6294TIP3    H140441   1.320   1.501   1.375  2.2221  2.7869 -1.9301
 6294TIP3    H240442   1.371   1.359   1.371 -1.5161  1.2936 -0.6254
 6295TIP3   OH240443   5.017   6.268   2.560 -0.3251 -0.4885  0.1260
 6295TIP3    H140444   5.057   6.259   2.473  0.6643  0.4491  0.4594
 6295TIP3    H240445   5.081   6.227   2.619 -0.0237  0.6689  0.6267
 6296TIP3   OH240446   1.376   5.951   1.850  0.2167  0.3971  0.6771
 6296TIP3    H140447   1.315   5.991   1.912  0.1737 -2.3250  2.5757
 6296TIP3    H240448   1.461   5.988   1.874 -0.2417  2.0247 -0.0680
 6297TIP3   OH240449   2.447   4.717   1.472 -0.4188  0.2209 -0.2789
 6297TIP3    H140450   2.410   4.766   1.399 -0.9128  0.4254  0.0937
 6297TIP3    H240451   2.390   4.640   1.480 -0.6347  0.4178  0.1526
 6298TIP3   OH240452   3.792   3.273   2.632 -0.5833  0.2566 -0.0093
 6298TIP3    H140453   3.781   3.295   2.725 -1.6940 -0.8732  0.1555
 6298TIP3    H240454   3.703   3.263   2.599 -0.1859 -1.0423 -0.7510
 6299TIP3   OH240455   5.139   0.099   1.584  0.2079 -0.0200  0.7234
 6299TIP3    H140456   5.140   0.102   1.679 -0.6799  1.0656  0.7202
 6299TIP3    H240457   5.077   0.030   1.562  0.7142 -0.5438  0.9219
 6300TIP3   OH240458   4.814   4.925   2.084  0.0819 -0.3292  0.1309
 6300TIP3    H140459   4.855   4.843   2.057  0.8868  0.2965 -0.5919
 6300TIP3    H240460   4.720   4.904   2.087  0.1857 -1.0459 -0.9093
 6301TIP3   OH240461   6.782   4.002   8.236  0.1469 -0.3257  0.0892
 6301TIP3    H140462   6.839   4.041   8.302  1.6796  0.3884 -1.5495
 6301TIP3    H240463   6.807   3.909   8.235 -0.2147 -0.4355  0.8124
 6302TIP3   OH240464   4.388   0.854   8.249 -1.0322  0.5205 -0.0372
 6302TIP3    H140465   4.467   0.801   8.256 -1.6960 -0.4920  0.0049
 6302TIP3    H240466   4.382   0.901   8.332 -1.5206 -0.9152  0.7643
 6303TIP3   OH240467   5.195   6.648   7.884 -0.3335 -0.1683  0.3282
 6303TIP3    H140468   5.228   6.562   7.859  2.5599  0.5098  1.3773
 6303TIP3    H240469   5.242   6.709   7.827 -1.9592  0.7736 -0.0632
 6304TIP3   OH240470   2.934   3.977   0.500  0.4478 -0.1190  0.3345
 6304TIP3    H140471   3.013   4.030   0.496 -0.5405  1.4075 -0.2688
 6304TIP3    H240472   2.922   3.958   0.593  1.5153 -0.3758  0.4288
 6305TIP3   OH240473   0.717   5.210   1.554  0.3687 -0.0024  0.0100
 6305TIP3    H140474   0.775   5.211   1.629  1.2623  0.3246 -0.6622
 6305TIP3    H240475   0.754   5.144   1.495 -1.8365 -2.2412  0.9750
 6306TIP3   OH240476   2.487   5.045   1.944  0.2686 -0.2879 -0.2030
 6306TIP3    H140477   2.552   5.051   2.015  1.4175 -2.3967 -1.0001
 6306TIP3    H240478   2.509   4.964   1.898 -0.8858  0.6618 -2.5693
 6307TIP3   OH240479   2.816   1.536   1.747 -0.4610 -0.5477 -0.8838
 6307TIP3    H140480   2.889   1.526   1.807 -0.7023 -1.3599 -0.7233
 6307TIP3    H240481   2.791   1.447   1.723 -3.2822 -0.4844  1.3262
 6308TIP3   OH240482   3.574   3.891   0.656  0.6554  0.3092 -0.2588
 6308TIP3    H140483   3.517   3.967   0.668  1.2937  0.6038  1.1502
 6308TIP3    H240484   3.655   3.914   0.701  1.2965 -0.7403 -0.8352
 6309TIP3   OH240485   2.285   1.674   0.460  0.3421  0.6431 -0.3651
 6309TIP3    H140486   2.318   1.610   0.397 -2.9548 -1.3429 -0.2870
 6309TIP3    H240487   2.282   1.627   0.543 -3.8766 -0.0026 -0.6513
 6310TIP3   OH240488   5.481   6.472   3.272 -0.6482  0.2990  0.5371
 6310TIP3    H140489   5.429   6.445   3.196 -1.6979  1.1392  0.9394
 6310TIP3    H240490   5.481   6.396   3.330 -0.2272 -0.1884 -0.0852
 6311TIP3   OH240491   1.579   3.870   1.484 -0.8923  0.1289  0.9624
 6311TIP3    H140492   1.536   3.805   1.428 -2.2015  1.8501 -0.1519
 6311TIP3    H240493   1.571   3.835   1.573 -0.5594 -1.7312  0.2998
 6312TIP3   OH240494   1.749   0.482   7.369  0.1747  0.3516 -0.3826
 6312TIP3    H140495   1.705   0.424   7.306 -2.3680 -0.1339  1.6799
 6312TIP3    H240496   1.706   0.463   7.452  3.0916  1.2914  1.4639
 6313TIP3   OH240497   1.101   0.341   2.151  0.1020  0.1263 -0.9568
 6313TIP3    H140498   1.028   0.343   2.088  0.3738 -0.3944 -1.3062
 6313TIP3    H240499   1.179   0.333   2.096  0.2820 -1.3297 -0.5431
 6314TIP3   OH240500   2.254   2.842   3.035 -0.1257 -0.1335  0.5772
 6314TIP3    H140501   2.165   2.873   3.016  0.1964  1.7570  1.8430
 6314TIP3    H240502   2.310   2.917   3.014  0.9586 -0.6070  1.6658
 6315TIP3   OH240503   2.210   2.038   3.082 -0.5461 -0.1438 -0.0378
 6315TIP3    H140504   2.143   1.974   3.060 -0.3315 -0.3865  0.0066
 6315TIP3    H240505   2.163   2.121   3.092 -0.6984 -0.0963 -1.0556
 6316TIP3   OH240506   3.266   2.768   7.133 -0.5823 -0.1977  0.3363
 6316TIP3    H140507   3.188   2.823   7.140 -1.5071 -1.4531  0.2723
 6316TIP3    H240508   3.310   2.798   7.053 -1.2665  0.2000  0.1039
 6317TIP3   OH240509   0.112   6.550   1.547  0.2938 -0.1197  0.5634
 6317TIP3    H140510   0.029   6.596   1.559 -0.3905 -1.0730 -0.3495
 6317TIP3    H240511   0.124   6.500   1.628  0.9004  1.3786  1.4445
 6318TIP3   OH240512   1.852   2.943   6.632  0.7668  0.2320  0.5598
 6318TIP3    H140513   1.853   3.036   6.607 -1.3614  0.5157  1.2608
 6318TIP3    H240514   1.782   2.938   6.697  1.8656 -1.6201  1.6472
 6319TIP3   OH240515   1.299   3.973   1.648  0.5373  0.2451  0.3761
 6319TIP3    H140516   1.387   3.958   1.684  1.6722  2.1145 -1.3675
 6319TIP3    H240517   1.259   4.035   1.708  0.8278  0.1901  0.6283
 6320TIP3   OH240518   4.075   4.425   0.331  0.0735 -0.1796  0.1802
 6320TIP3    H140519   4.058   4.383   0.415  1.3280  0.4290  0.7660
 6320TIP3    H240520   4.131   4.363   0.284  0.9096  0.2828  0.5516
 6321TIP3   OH240521   3.824   1.474   1.386 -0.3491 -0.4134  0.0959
 6321TIP3    H140522   3.817   1.561   1.347  0.2544 -0.5584 -0.3540
 6321TIP3    H240523   3.749   1.468   1.445 -2.5855 -0.9737 -2.5995
 6322TIP3   OH240524   4.792   2.165   8.352  0.5647  0.1649  0.1050
 6322TIP3    H140525   4.868   2.215   8.323  0.8495  0.1334  0.8002
 6322TIP3    H240526   4.741   2.227   8.405  0.4163  0.0058  0.1514
 6323TIP3   OH240527   2.451   4.476   2.268 -0.5085  0.3458 -0.4594
 6323TIP3    H140528   2.394   4.453   2.341  2.1508  0.9353  1.9626
 6323TIP3    H240529   2.482   4.392   2.234 -2.0662  0.0553 -1.2742
 6324TIP3   OH240530   0.506   0.539   0.522  0.1106  0.4057 -0.0998
 6324TIP3    H140531   0.507   0.627   0.560  1.4435  1.4379 -2.3343
 6324TIP3    H240532   0.562   0.545   0.445  2.6189 -3.1111  1.1708
 6325TIP3   OH240533   6.261   2.057   8.522  0.0578  0.0792  0.3389
 6325TIP3    H140534   6.221   2.123   8.579 -0.4272 -0.2730  0.4149
 6325TIP3    H240535   6.245   1.974   8.566 -0.9288 -0.2686 -0.6250
 6326TIP3   OH240536   3.046   0.555   0.749  0.1617  0.0392  0.8750
 6326TIP3    H140537   3.078   0.478   0.702  0.7725  0.7568  0.0947
 6326TIP3    H240538   2.951   0.542   0.754 -0.2174  0.7542 -2.1686
 6327TIP3   OH240539   2.211   0.701   2.303  0.3994 -0.0642 -0.0000
 6327TIP3    H140540   2.246   0.784   2.334  0.7635 -0.3131  0.2583
 6327TIP3    H240541   2.274   0.635   2.332  1.3548 -0.2167 -2.2366
 6328TIP3   OH240542   4.262   6.678   2.635 -0.4186  0.4847 -0.2030
 6328TIP3    H140543   4.280   6.588   2.609 -0.6850  1.0145 -2.3624
 6328TIP3    H240544   4.170   6.677   2.663 -0.0301 -0.1570  1.1919
 6329TIP3   OH240545   4.862   1.238   7.040  0.1346 -0.5035  0.0008
 6329TIP3    H140546   4.807   1.177   6.992 -1.0973  0.1348  0.5622
 6329TIP3    H240547   4.832   1.325   7.012  1.3633 -0.1366 -0.2414
 6330TIP3   OH240548   0.385   0.398   6.935  0.1958  0.0648 -0.4155
 6330TIP3    H140549   0.359   0.361   6.851 -0.8860 -0.2909  0.0457
 6330TIP3    H240550   0.477   0.374   6.945  0.0148 -0.9242 -0.9703
 6331TIP3   OH240551   6.754   5.851   8.387  0.2498 -0.0395 -0.4246
 6331TIP3    H140552   6.700   5.786   8.341 -0.6199 -0.0225  0.5442
 6331TIP3    H240553   6.699   5.883   8.458  0.9444  1.2244 -0.4234
 6332TIP3   OH240554   6.270   0.353   2.396 -0.2480 -0.1780  0.4533
 6332TIP3    H140555   6.252   0.355   2.302  3.1851 -4.1581 -0.6437
 6332TIP3    H240556   6.198   0.303   2.433  0.4498 -2.4392 -1.0042
 6333TIP3   OH240557   3.498   2.704   7.355  0.2304  0.1941 -0.0028
 6333TIP3    H140558   3.499   2.798   7.367  0.7499  0.1453  0.3678
 6333TIP3    H240559   3.569   2.686   7.293 -0.8001  0.1848 -1.2189
 6334TIP3   OH240560   1.015   2.513   0.400 -0.2454 -0.2466 -0.1550
 6334TIP3    H140561   1.108   2.535   0.394 -0.5345  0.6745 -2.0002
 6334TIP3    H240562   0.998   2.506   0.494  1.2437  1.5681  0.3218
 6335TIP3   OH240563   0.539   4.256   0.026  0.0957  0.3282  0.4604
 6335TIP3    H140564   0.608   4.222  -0.030  0.5852  1.7007  0.1780
 6335TIP3    H240565   0.584   4.294   0.101 -0.4815 -0.3986  1.1954
 6336TIP3   OH240566   5.769   2.934   7.269 -0.0419 -0.3983 -0.7235
 6336TIP3    H140567   5.675   2.948   7.262  0.2563  1.5572 -1.5333
 6336TIP3    H240568   5.792   2.964   7.357  0.0103  0.5785 -1.0549
 6337TIP3   OH240569   1.495   0.345   1.040  0.2952 -0.2500  0.2245
 6337TIP3    H140570   1.569   0.400   1.063 -0.0201  0.1653  0.2609
 6337TIP3    H240571   1.421   0.405   1.034  0.3220 -0.3300 -1.7241
 6338TIP3   OH240572   1.101   5.521   2.111  0.2404 -0.2015  0.3663
 6338TIP3    H140573   1.031   5.477   2.062  0.6648  1.0798 -1.5016
 6338TIP3    H240574   1.168   5.540   2.046  0.7305  1.8193  1.3660
 6339TIP3   OH240575   3.509   2.813   1.140  0.1307  0.3605 -0.0778
 6339TIP3    H140576   3.594   2.806   1.097 -0.4618  0.2361 -1.2524
 6339TIP3    H240577   3.523   2.877   1.210  0.9542  1.0796 -0.8651
 6340TIP3   OH240578   6.361   3.971   0.259 -0.0266 -0.0036  0.3529
 6340TIP3    H140579   6.364   3.889   0.308 -1.1444  0.4121  1.1431
 6340TIP3    H240580   6.392   4.037   0.321 -0.3259  0.3556  0.1224
 6341TIP3   OH240581   1.044   5.898   1.512  0.2254 -0.1162  0.2179
 6341TIP3    H140582   1.011   5.917   1.424 -0.5565 -1.0067  0.3013
 6341TIP3    H240583   1.064   5.984   1.549 -1.3534  0.4290 -0.1096
 6342TIP3   OH240584   4.626   2.153   8.119 -0.0466  0.0214 -0.3538
 6342TIP3    H140585   4.542   2.167   8.162 -0.0765 -0.5454 -0.2181
 6342TIP3    H240586   4.686   2.125   8.189 -0.9286 -4.3783 -1.0348
 6343TIP3   OH240587   0.585   3.016   7.288  0.0483  0.5342  0.7418
 6343TIP3    H140588   0.641   3.027   7.211 -0.7159 -0.4055  0.0372
 6343TIP3    H240589   0.497   3.006   7.252 -0.5570  1.7221  1.8234
 6344TIP3   OH240590   5.423   6.768   7.370 -0.1620  0.2616  0.2575
 6344TIP3    H140591   5.500   6.749   7.424 -0.1915  0.5873  0.4106
 6344TIP3    H240592   5.459   6.792   7.285 -0.0893  0.6409  0.3972
 6345TIP3   OH240593   2.421   4.346   7.831  0.6056 -0.1521  0.4563
 6345TIP3    H140594   2.347   4.401   7.858  0.3482 -0.7586  0.9933
 6345TIP3    H240595   2.417   4.347   7.735  0.5212  0.6522  0.4596
 6346TIP3   OH240596   0.972   5.490   2.376  0.0775  0.0582 -0.4111
 6346TIP3    H140597   0.902   5.431   2.350 -1.2249  0.5387  1.7613
 6346TIP3    H240598   1.023   5.504   2.296 -2.1233 -0.5336 -2.0009
 6347TIP3   OH240599   2.297   4.970   2.497  0.5802 -0.0635 -0.7718
 6347TIP3    H140600   2.306   5.060   2.526 -2.6222 -0.0465  0.5013
 6347TIP3    H240601   2.255   4.976   2.411 -0.1701 -0.3203 -0.4331
 6348TIP3   OH240602   6.176   6.743   2.531  0.2796 -0.3929  0.7726
 6348TIP3    H140603   6.225   6.675   2.486 -1.2515 -1.0695  0.0637
 6348TIP3    H240604   6.141   6.700   2.609  2.4192  0.6133  2.3758
 6349TIP3   OH240605   2.203   0.950   8.361  1.0661  0.0871 -0.2305
 6349TIP3    H140606   2.166   1.023   8.312  0.5491 -0.3772 -0.5453
 6349TIP3    H240607   2.224   0.885   8.294  1.1685 -0.2050  0.0827
 6350TIP3   OH240608   5.304   4.529   0.855 -0.2230 -0.2324  0.4475
 6350TIP3    H140609   5.361   4.571   0.790 -0.6120 -0.4641 -0.0551
 6350TIP3    H240610   5.357   4.525   0.935  0.2657  0.0585  0.1438
 6351TIP3   OH240611   5.752   0.721   7.227 -0.4201  0.2371 -0.3045
 6351TIP3    H140612   5.759   0.814   7.210  1.2960  0.3019  0.5631
 6351TIP3    H240613   5.703   0.686   7.153  0.3449  1.5778 -1.4781
 6352TIP3   OH240614   1.585   0.886   0.684 -0.4649  0.2762  0.2278
 6352TIP3    H140615   1.495   0.911   0.666 -0.4738  0.5700  0.6463
 6352TIP3    H240616   1.637   0.960   0.654 -0.2339 -0.4656 -1.3076
 6353TIP3   OH240617   5.811   2.199   1.007  0.2600 -0.2876  0.6085
 6353TIP3    H140618   5.852   2.275   0.967  1.4021 -1.6043 -0.8569
 6353TIP3    H240619   5.884   2.140   1.026 -0.6466 -1.2782  1.1202
 6354TIP3   OH240620   6.392   0.335   7.686  0.0129  0.1774 -0.4973
 6354TIP3    H140621   6.396   0.362   7.594  2.5617 -0.8314 -0.7719
 6354TIP3    H240622   6.302   0.353   7.713  0.3074  4.6857 -1.8330
 6355TIP3   OH240623   4.775   6.343   2.460  0.3567 -0.3304  0.5295
 6355TIP3    H140624   4.749   6.260   2.499 -0.8076  0.5909  1.8121
 6355TIP3    H240625   4.866   6.356   2.488  0.5977 -1.2389  0.1759
 6356TIP3   OH240626   3.285   2.987   7.917  0.2681  0.1237  0.5160
 6356TIP3    H140627   3.324   2.997   8.004  0.6697  0.2357  0.3301
 6356TIP3    H240628   3.191   2.985   7.932  0.2622  1.5711  0.8284
 6357TIP3   OH240629   6.615   2.359   8.476  0.2410 -0.3346 -0.5326
 6357TIP3    H140630   6.653   2.292   8.419  1.6821  0.0034 -0.0297
 6357TIP3    H240631   6.592   2.430   8.416  1.0534 -0.2763 -0.7918
 6358TIP3   OH240632   5.632   6.707   1.541 -0.0302  0.1181 -0.2460
 6358TIP3    H140633   5.637   6.711   1.445  1.2326  0.1315 -0.2028
 6358TIP3    H240634   5.578   6.630   1.559  1.9135 -1.5479 -1.0040
 6359TIP3   OH240635   5.406   3.347   0.809 -0.1760  0.2268 -0.7216
 6359TIP3    H140636   5.419   3.262   0.768  1.3699  1.0812 -2.1138
 6359TIP3    H240637   5.312   3.350   0.828 -0.1264 -2.1628  0.3122
 6360TIP3   OH240638   6.011   6.677   7.699 -0.0453 -0.0358 -0.4041
 6360TIP3    H140639   6.010   6.740   7.627  0.5529  1.2400  0.6457
 6360TIP3    H240640   5.920   6.645   7.705 -1.5087  3.8101  1.5438
 6361TIP3   OH240641   3.650   2.196   0.359 -0.0105 -0.5997 -0.1209
 6361TIP3    H140642   3.597   2.131   0.405  1.4079 -2.0635 -0.4656
 6361TIP3    H240643   3.739   2.161   0.363  0.7838  1.2692 -0.4492
 6362TIP3   OH240644   2.315   4.024   1.614 -0.1116 -0.1557  0.2255
 6362TIP3    H140645   2.325   4.088   1.685  0.4293 -0.1068  0.1109
 6362TIP3    H240646   2.249   3.963   1.646  0.9328 -0.7857  1.2530
 6363TIP3   OH240647   3.526   5.299   0.438 -0.6365 -0.4096  0.2639
 6363TIP3    H140648   3.495   5.252   0.360  0.0827 -0.2154 -0.1450
 6363TIP3    H240649   3.585   5.238   0.482  0.4141  0.1374 -0.3462
 6364TIP3   OH240650   2.322   0.943   7.813  0.3989  0.0085  0.0428
 6364TIP3    H140651   2.390   0.877   7.808  0.1123 -0.9224  4.4074
 6364TIP3    H240652   2.340   0.991   7.894 -2.8860  1.1498  0.2711
 6365TIP3   OH240653   2.614   6.258   7.171 -0.1213  0.1755  0.1879
 6365TIP3    H140654   2.520   6.260   7.193 -0.0351 -4.4348  2.3191
 6365TIP3    H240655   2.616   6.231   7.079 -0.9211  0.2434  0.1388
 6366TIP3   OH240656   1.363   4.217   8.162 -0.1710 -0.2825 -0.1095
 6366TIP3    H140657   1.292   4.282   8.159  0.2786  0.1759 -1.4952
 6366TIP3    H240658   1.411   4.239   8.242 -0.1782  0.9434 -0.4214
 6367TIP3   OH240659   6.286   5.203   1.848  0.8886 -0.7743 -0.1697
 6367TIP3    H140660   6.235   5.283   1.847  0.2424 -1.1804 -0.0958
 6367TIP3    H240661   6.349   5.214   1.777  3.0808  1.2263  1.8718
 6368TIP3   OH240662   1.513   0.749   1.375  0.3977  0.2603 -0.3055
 6368TIP3    H140663   1.494   0.782   1.462 -0.5396 -1.5852  0.2367
 6368TIP3    H240664   1.428   0.718   1.342  0.9880 -0.3607 -1.2950
 6369TIP3   OH240665   3.256   1.355   0.777  0.3414  0.3370 -0.5773
 6369TIP3    H140666   3.287   1.418   0.842 -0.6899 -0.6771  0.9957
 6369TIP3    H240667   3.331   1.297   0.762  0.9355  1.2396 -1.1715
 6370TIP3   OH240668   6.459   3.619   0.162 -0.0240  0.4086 -0.2093
 6370TIP3    H140669   6.509   3.630   0.242 -0.6833 -0.8438  0.4116
 6370TIP3    H240670   6.375   3.582   0.191  0.4959 -2.1125 -1.6125
 6371TIP3   OH240671   0.838   5.322   8.546 -0.1403 -0.1793 -0.0043
 6371TIP3    H140672   0.852   5.343   8.453 -0.2484 -0.2236 -0.0308
 6371TIP3    H240673   0.923   5.339   8.587 -0.0424 -0.3327 -0.1433
 6372TIP3   OH240674   2.684   5.878   2.171  0.0030  0.6546 -0.2270
 6372TIP3    H140675   2.703   5.960   2.126 -1.7319  1.0592 -0.3110
 6372TIP3    H240676   2.632   5.828   2.108  0.9147 -0.4632 -0.1164
 6373TIP3   OH240677   6.395   4.217   0.741 -0.0245  0.3599  0.7083
 6373TIP3    H140678   6.310   4.215   0.786  0.5057 -0.9606  1.7230
 6373TIP3    H240679   6.457   4.180   0.804  1.6138  2.6230  0.5389
 6374TIP3   OH240680   2.256   2.452   8.018 -0.4523  0.3836 -0.1798
 6374TIP3    H140681   2.349   2.470   8.001 -0.0754  1.0636  2.1709
 6374TIP3    H240682   2.211   2.531   7.987 -0.3818 -0.3211 -2.1535
 6375TIP3   OH240683   5.117   1.753   1.336 -0.9731  0.2459 -0.0715
 6375TIP3    H140684   5.090   1.743   1.244 -2.1154  1.3209  0.1109
 6375TIP3    H240685   5.168   1.675   1.355  0.1267  0.4459 -1.9151
 6376TIP3   OH240686   3.036   3.736   0.163  0.1461 -0.0819  0.2677
 6376TIP3    H140687   3.035   3.787   0.082  0.0587  2.3027  1.6550
 6376TIP3    H240688   3.119   3.758   0.204 -0.4431 -0.0303  1.4988
 6377TIP3   OH240689   3.406   0.234   7.939 -0.2645  0.0763 -0.3246
 6377TIP3    H140690   3.453   0.156   7.970  1.4143  0.6389 -1.3433
 6377TIP3    H240691   3.347   0.200   7.871 -0.9372 -0.5509  0.5439
 6378TIP3   OH240692   3.975   2.903   1.612  0.0123 -0.0494  0.4119
 6378TIP3    H140693   4.047   2.845   1.590  1.9305  2.7393 -1.2989
 6378TIP3    H240694   3.899   2.864   1.568  1.2531 -1.1831 -0.8274
 6379TIP3   OH240695   2.774   0.576   0.685  0.0137  0.2815  0.1515
 6379TIP3    H140696   2.788   0.482   0.673  0.7080  0.3464  0.3993
 6379TIP3    H240697   2.688   0.593   0.646 -0.5307 -0.6213  0.9327
 6380TIP3   OH240698   0.525   6.392   1.111 -0.7360 -0.0584  0.2747
 6380TIP3    H140699   0.511   6.464   1.173 -5.2821 -0.8453  0.5195
 6380TIP3    H240700   0.495   6.315   1.159  0.1802 -1.4857 -1.3689
 6381TIP3   OH240701   1.273   2.154   1.960 -0.1423  0.6043  0.1896
 6381TIP3    H140702   1.182   2.162   1.990 -0.5025 -0.3223 -0.5883
 6381TIP3    H240703   1.318   2.109   2.032 -0.6094 -0.0867  0.0645
 6382TIP3   OH240704   6.616   2.131   6.864  0.3608  0.1628  0.1252
 6382TIP3    H140705   6.527   2.167   6.865  0.5318  0.6217  1.9598
 6382TIP3    H240706   6.673   2.207   6.851  0.5159 -0.1574 -1.2777
 6383TIP3   OH240707   1.925   2.553   1.151 -0.2671  0.4170  0.0409
 6383TIP3    H140708   1.925   2.637   1.197  1.6034  0.3832  0.1642
 6383TIP3    H240709   1.945   2.576   1.060 -1.6096  0.2525 -0.3197
 6384TIP3   OH240710   6.082   3.595   7.821  0.0592 -0.7523  0.1638
 6384TIP3    H140711   6.044   3.611   7.734 -0.7717 -1.5134  0.3723
 6384TIP3    H240712   6.030   3.650   7.880  0.0695 -0.8802  0.2918
 6385TIP3   OH240713   4.646   6.825   1.627 -0.6273 -0.2729 -0.1775
 6385TIP3    H140714   4.597   6.781   1.696 -0.0239 -2.5822 -1.1161
 6385TIP3    H240715   4.579   6.875   1.579 -1.5219 -0.8654  0.4124
 6386TIP3   OH240716   3.798   2.884   0.519  0.6151 -0.1467  0.0265
 6386TIP3    H140717   3.823   2.793   0.534  0.8462 -0.1094 -0.1183
 6386TIP3    H240718   3.882   2.930   0.506  0.4656 -0.0591 -0.6760
 6387TIP3   OH240719   0.003   1.848   7.043 -0.6327  0.3106 -0.1870
 6387TIP3    H140720   0.090   1.832   7.078 -0.7755 -0.7281 -0.2698
 6387TIP3    H240721   0.018   1.901   6.964 -0.1156  0.4385 -0.0060
 6388TIP3   OH240722   6.438   6.156   1.427  0.0168 -0.3963 -0.2542
 6388TIP3    H140723   6.448   6.195   1.341 -2.5319 -0.5346 -0.6997
 6388TIP3    H240724   6.521   6.173   1.472 -0.2718  4.0107 -1.0003
 6389TIP3   OH240725   4.600   1.495   8.473  0.2500 -0.1327 -0.0754
 6389TIP3    H140726   4.686   1.507   8.433  0.8149  0.6664  1.3059
 6389TIP3    H240727   4.572   1.584   8.498 -1.1442 -0.3290 -0.8066
 6390TIP3   OH240728   6.729   6.692   0.071 -0.1705 -0.1185  0.4779
 6390TIP3    H140729   6.666   6.666   0.004 -0.7363  3.1734 -0.4310
 6390TIP3    H240730   6.675   6.717   0.146  0.2190  0.1073  0.6849
 6391TIP3   OH240731   3.075   4.916   0.465  0.0162  0.0496 -0.0582
 6391TIP3    H140732   3.133   4.989   0.489  0.0063 -0.2907  1.0250
 6391TIP3    H240733   3.036   4.888   0.547  0.0859 -1.2526 -0.4567
 6392TIP3   OH240734   5.956   3.726   2.010 -0.4101 -0.2481  0.0115
 6392TIP3    H140735   6.009   3.806   2.011  0.8516 -1.0462 -0.2397
 6392TIP3    H240736   5.910   3.729   1.926 -0.2137  0.1204 -0.0854
 6393TIP3   OH240737   1.472   1.298   8.499 -0.3479 -0.5472  0.3365
 6393TIP3    H140738   1.454   1.341   8.582 -0.8726  1.0678 -0.5631
 6393TIP3    H240739   1.401   1.235   8.489  0.8224 -2.2508  2.0066
 6394TIP3   OH240740   3.233   3.696   6.997 -0.1120 -0.4322  0.5696
 6394TIP3    H140741   3.170   3.726   6.932  1.0368  0.7590 -0.0392
 6394TIP3    H240742   3.313   3.679   6.948  0.4810 -0.4953  1.5187
 6395TIP3   OH240743   2.055   1.548   1.003  0.3168  0.7830  0.1697
 6395TIP3    H140744   1.977   1.495   0.984  0.1945  1.0546 -0.1006
 6395TIP3    H240745   2.125   1.484   1.017 -0.1767  0.5028  1.4697
 6396TIP3   OH240746   2.958   2.024   7.301  0.4398  0.0713 -0.0096
 6396TIP3    H140747   2.887   2.009   7.239 -0.3464  0.3615  0.8065
 6396TIP3    H240748   3.028   2.063   7.249 -0.0052 -0.1922 -0.8143
 6397TIP3   OH240749   5.489   1.926   0.821  0.5699  0.5289 -1.0237
 6397TIP3    H140750   5.452   1.888   0.741 -2.8394  0.7619  0.2862
 6397TIP3    H240751   5.476   1.858   0.887  1.3167  1.1802 -0.1894
 6398TIP3   OH240752   5.542   1.223   7.588 -0.7338 -0.6480  0.6094
 6398TIP3    H140753   5.584   1.306   7.564 -1.7289  0.5307  2.6345
 6398TIP3    H240754   5.581   1.200   7.672 -1.7263 -1.2957  0.9030
 6399TIP3   OH240755   2.832   2.438   1.168 -0.0686 -0.2565 -0.5483
 6399TIP3    H140756   2.757   2.441   1.109 -0.4829  0.0295 -0.0219
 6399TIP3    H240757   2.802   2.386   1.242  0.0373  0.3759 -0.0530
 6400TIP3   OH240758   5.720   3.728   0.630 -0.0325 -0.0174 -0.5931
 6400TIP3    H140759   5.721   3.636   0.656 -0.9395  0.0080 -0.4400
 6400TIP3    H240760   5.791   3.736   0.567  2.7210  0.0404  2.2487
 6401TIP3   OH240761   4.079   3.998   6.847 -0.2867  0.0098 -0.0842
 6401TIP3    H140762   4.047   4.042   6.926 -0.0004  0.7698 -0.3873
 6401TIP3    H240763   4.016   3.927   6.834 -0.4185 -0.0432  0.7464
 6402TIP3   OH240764   4.404   6.200   7.269 -0.3005  0.2676  0.1228
 6402TIP3    H140765   4.338   6.217   7.202  0.5018  2.0592 -0.2601
 6402TIP3    H240766   4.400   6.276   7.327 -1.3302 -1.4592  2.4652
 6403TIP3   OH240767   3.070   6.260   2.387 -0.3408  0.1045 -0.5698
 6403TIP3    H140768   3.135   6.326   2.364  0.2010 -0.4004 -0.5013
 6403TIP3    H240769   3.112   6.176   2.369 -0.7211 -0.2483  0.1168
 6404TIP3   OH240770   4.812   1.918   1.555  0.5398  0.2873 -0.2944
 6404TIP3    H140771   4.773   1.986   1.611 -0.8285 -0.2494 -0.5399
 6404TIP3    H240772   4.758   1.920   1.475 -0.0445 -1.5874  0.0010
 6405TIP3   OH240773   4.131   1.745   2.235 -0.4245  0.5317 -0.4157
 6405TIP3    H140774   4.168   1.746   2.323 -0.9822 -1.6944 -0.0971
 6405TIP3    H240775   4.203   1.714   2.179 -0.7880 -0.5453 -0.3134
 6406TIP3   OH240776   2.036   5.585   0.986  0.1706 -0.1160  0.5553
 6406TIP3    H140777   2.010   5.673   0.959 -0.6186 -0.4600  0.1750
 6406TIP3    H240778   1.996   5.574   1.073  1.5394  0.4611  1.2868
 6407TIP3   OH240779   2.025   4.315   2.128  0.3671 -0.0700  0.1645
 6407TIP3    H140780   1.985   4.275   2.051  1.2674 -0.3719 -0.1585
 6407TIP3    H240781   2.015   4.250   2.197 -2.3957  1.0424  0.9453
 6408TIP3   OH240782   3.072   4.828   1.891  0.2951 -0.5676  0.8826
 6408TIP3    H140783   3.033   4.778   1.963  1.1382 -1.2235  0.9054
 6408TIP3    H240784   3.149   4.869   1.930 -0.7352  1.3091  1.0277
 6409TIP3   OH240785   0.695   4.793   1.711  1.0391 -0.1203  0.0543
 6409TIP3    H140786   0.615   4.785   1.763  0.2718  2.5670 -0.5807
 6409TIP3    H240787   0.677   4.742   1.632 -0.0733  0.4539 -0.0832
 6410TIP3   OH240788   1.689   4.079   8.130 -0.4454 -0.5650  0.2806
 6410TIP3    H140789   1.700   4.173   8.141 -1.6108 -0.6022  2.1491
 6410TIP3    H240790   1.778   4.044   8.132  0.1737  0.6023 -2.3279
 6411TIP3   OH240791   5.973   0.055   8.487 -0.2872 -0.6994 -1.2649
 6411TIP3    H140792   6.021  -0.023   8.461  0.7769 -0.1690 -0.9346
 6411TIP3    H240793   6.023   0.091   8.561 -1.1708 -0.1130 -0.9353
 6412TIP3   OH240794   2.668   6.473   8.332  0.0768 -0.1488  0.2552
 6412TIP3    H140795   2.639   6.384   8.317 -0.6656  0.1581 -0.1711
 6412TIP3    H240796   2.612   6.527   8.276  0.5163  0.5843  0.4999
 6413TIP3   OH240797   3.667   0.105   0.558 -0.1358  0.1689 -0.1855
 6413TIP3    H140798   3.595   0.061   0.603 -2.8908  1.4420 -2.9609
 6413TIP3    H240799   3.689   0.180   0.613 -0.1845 -0.7933  1.1882
 6414TIP3   OH240800   5.753   6.537   7.661 -0.5132 -0.2025 -0.1059
 6414TIP3    H140801   5.688   6.586   7.612  0.3399  2.2023  0.9731
 6414TIP3    H240802   5.706   6.462   7.696 -2.1723  0.3471 -1.0676
 6415TIP3   OH240803   0.221   0.853   1.061  0.0444  0.5123  0.1311
 6415TIP3    H140804   0.226   0.833   1.154 -2.4672  2.1719  0.7017
 6415TIP3    H240805   0.128   0.851   1.040  0.4718  1.0662 -2.1496
 6416TIP3   OH240806   6.726   0.495   8.456 -0.2273  0.1513 -0.4012
 6416TIP3    H140807   6.709   0.530   8.544 -1.1666 -0.3437 -0.3702
 6416TIP3    H240808   6.816   0.462   8.461 -0.3401 -0.0659  0.4411
 6417TIP3   OH240809   3.761   2.657   8.055  0.4885 -0.0412 -0.0629
 6417TIP3    H140810   3.819   2.641   7.980 -0.2433 -0.3936 -0.5663
 6417TIP3    H240811   3.679   2.687   8.016 -0.1492 -0.9286  0.5457
 6418TIP3   OH240812   3.505   6.466   2.056  0.4256 -0.4916  0.1389
 6418TIP3    H140813   3.418   6.428   2.044 -0.0786 -0.2187  2.4670
 6418TIP3    H240814   3.563   6.391   2.064  0.1963 -0.7002 -0.1126
 6419TIP3   OH240815   0.382   6.703   1.828 -0.1684 -0.0549 -0.8794
 6419TIP3    H140816   0.363   6.783   1.779  1.4961  0.1643 -1.2182
 6419TIP3    H240817   0.397   6.637   1.760  0.0030 -0.2812 -0.6231
 6420TIP3   OH240818   5.140   3.605   0.770 -0.4307 -0.0468  0.0251
 6420TIP3    H140819   5.098   3.671   0.825 -0.9445 -0.2516 -0.1123
 6420TIP3    H240820   5.169   3.654   0.692  1.7482  0.5633  1.1402
 6421TIP3   OH240821   3.932   3.376   0.338  0.1303 -0.3200  0.1090
 6421TIP3    H140822   3.895   3.291   0.360 -0.9536  0.4775  1.5264
 6421TIP3    H240823   3.876   3.439   0.384  0.6582  1.1868 -1.2140
 6422TIP3   OH240824   0.132   0.557   6.675 -0.3622  0.0262  0.3556
 6422TIP3    H140825   0.064   0.550   6.741 -0.1305  1.4694  0.8004
 6422TIP3    H240826   0.114   0.640   6.631  0.6572  0.0651 -0.0266
 6423TIP3   OH240827   0.053   0.646   0.865 -0.1905 -0.0404  0.3002
 6423TIP3    H140828  -0.041   0.625   0.863 -0.4948  1.2880 -1.5336
 6423TIP3    H240829   0.056   0.740   0.883  0.7013  0.2224 -1.0869
 6424TIP3   OH240830   6.414   0.391   7.284 -0.0275 -0.1408 -0.3902
 6424TIP3    H140831   6.494   0.368   7.333 -0.3689  1.6509  1.0945
 6424TIP3    H240832   6.344   0.348   7.333 -0.1965  0.1628 -0.3690
 6425TIP3   OH240833   4.422   3.496   2.712 -0.5757 -0.0883  0.2801
 6425TIP3    H140834   4.344   3.526   2.665  0.3790  0.1746 -1.2129
 6425TIP3    H240835   4.435   3.406   2.681 -0.9901 -0.5806  1.4901
 6426TIP3   OH240836   1.556   4.291   8.371  0.1053 -0.5869 -0.7088
 6426TIP3    H140837   1.506   4.369   8.397  1.7225 -0.1497  1.3737
 6426TIP3    H240838   1.634   4.326   8.329  0.8604 -1.0274  0.2707
 6427TIP3   OH240839   3.644   2.231   0.650  0.2001  0.3154  0.6866
 6427TIP3    H140840   3.667   2.278   0.569 -1.2788  1.2189  0.7558
 6427TIP3    H240841   3.586   2.161   0.622 -1.9499  1.8349  1.1050
 6428TIP3   OH240842   3.565   6.756   1.226  0.1566 -0.1596  0.0902
 6428TIP3    H140843   3.532   6.767   1.137  2.0764  1.0144 -0.5477
 6428TIP3    H240844   3.501   6.802   1.280 -2.0633 -2.4796 -0.3656
 6429TIP3   OH240845   4.936   0.707   0.287  0.2909  0.1097 -0.0683
 6429TIP3    H140846   4.909   0.617   0.273 -0.2229  0.4699 -1.5780
 6429TIP3    H240847   4.991   0.704   0.365  0.7787 -1.6136 -0.4367
 6430TIP3   OH240848   5.328   4.103   7.718 -0.0339  0.2430  0.6812
 6430TIP3    H140849   5.295   4.157   7.646 -1.4949 -0.8680  0.4713
 6430TIP3    H240850   5.352   4.166   7.786  1.8800  1.3581 -0.9215
 6431TIP3   OH240851   1.144   4.809   2.342  0.1382 -0.3442 -0.0065
 6431TIP3    H140852   1.221   4.845   2.385  0.0838 -1.7476  1.3516
 6431TIP3    H240853   1.071   4.837   2.397 -0.5213  1.9690 -1.9130
 6432TIP3   OH240854   0.975   2.451   7.673 -0.4619 -0.4597 -0.5058
 6432TIP3    H140855   0.972   2.449   7.769 -1.8854 -2.7512 -0.5257
 6432TIP3    H240856   0.902   2.508   7.649 -1.5667 -1.6968 -0.2021
 6433TIP3   OH240857   6.598   5.556   7.397 -0.4459 -0.2459 -0.2574
 6433TIP3    H140858   6.519   5.607   7.414 -0.5555 -0.1291 -1.0823
 6433TIP3    H240859   6.669   5.620   7.397 -0.2342 -0.4575  1.2660
 6434TIP3   OH240860   1.805   5.104   2.779  0.0392 -0.2224 -0.4989
 6434TIP3    H140861   1.831   5.041   2.846  0.0525  0.2507 -0.0493
 6434TIP3    H240862   1.866   5.177   2.790 -0.0912 -0.0499 -0.8920
 6435TIP3   OH240863   3.587   0.322   2.189  0.4041  1.0190 -0.8502
 6435TIP3    H140864   3.605   0.373   2.110  0.9418  0.2405 -1.2435
 6435TIP3    H240865   3.615   0.233   2.167 -0.6213  0.5280 -0.2174
 6436TIP3   OH240866   5.657   3.499   7.443  0.1610  0.0771  0.2371
 6436TIP3    H140867   5.701   3.567   7.392 -1.9470  0.3240 -1.4373
 6436TIP3    H240868   5.578   3.541   7.476 -0.9799 -1.3754 -0.4866
 6437TIP3   OH240869   5.040   2.014   8.564 -0.6544  0.2391  0.6510
 6437TIP3    H140870   5.125   2.047   8.593 -0.6466  0.8216  0.0130
 6437TIP3    H240871   4.976   2.063   8.616 -0.6193  0.7207  0.2582
 6438TIP3   OH240872   3.178   0.423   6.936  0.4993 -0.1800 -0.2578
 6438TIP3    H140873   3.215   0.380   7.013  1.3890 -0.4413 -0.8090
 6438TIP3    H240874   3.205   0.514   6.944  1.1072 -0.3251 -0.5429
 6439TIP3   OH240875   1.077   4.738   0.301  1.0037 -0.5357 -0.6787
 6439TIP3    H140876   1.164   4.698   0.301  0.6811 -1.2613 -1.3534
 6439TIP3    H240877   1.052   4.743   0.209  0.4696 -0.0203 -0.5152
 6440TIP3   OH240878   6.452   6.112   0.827  0.2519 -0.2348 -0.3147
 6440TIP3    H140879   6.445   6.158   0.744  0.6181 -0.3100 -0.3897
 6440TIP3    H240880   6.447   6.019   0.804  0.7243 -0.2688 -0.2965
 6441TIP3   OH240881   3.838   2.152   1.500 -0.1314 -0.5194  0.1336
 6441TIP3    H140882   3.751   2.171   1.535  0.8011  0.0735  2.3326
 6441TIP3    H240883   3.893   2.139   1.577  1.5004 -2.1138 -1.1976
 6442TIP3   OH240884   0.399   3.725   2.154  0.4747  0.2381 -0.0967
 6442TIP3    H140885   0.329   3.790   2.161  0.7725  0.5118  0.4223
 6442TIP3    H240886   0.480   3.776   2.160  0.7200 -0.2896  1.8715
 6443TIP3   OH240887   4.228   6.214   7.019 -0.2177 -0.2756  0.6027
 6443TIP3    H140888   4.266   6.290   6.975  1.4031 -0.2849  1.8940
 6443TIP3    H240889   4.147   6.247   7.058 -0.5251  0.2744 -0.4586
 6444TIP3   OH240890   5.569   0.182   7.497  0.0950  0.0308 -0.0853
 6444TIP3    H140891   5.591   0.157   7.407  1.3739 -1.8235  0.6721
 6444TIP3    H240892   5.475   0.166   7.504  0.2333 -1.2230 -0.7155
 6445TIP3   OH240893   1.022   3.407   0.860 -0.4432 -0.4602 -0.2383
 6445TIP3    H140894   1.007   3.463   0.784 -0.0659 -2.3059 -1.7312
 6445TIP3    H240895   1.117   3.392   0.860 -0.4421 -0.4868  0.6129
 6446TIP3   OH240896   1.048   4.212   0.437 -0.1791 -0.0765  0.0426
 6446TIP3    H140897   1.021   4.296   0.400  1.6269  0.5520  0.0716
 6446TIP3    H240898   1.108   4.176   0.372 -3.2292 -2.8967 -1.5172
 6447TIP3   OH240899   1.468   4.663   2.143  0.1776  0.1485  0.0771
 6447TIP3    H140900   1.449   4.752   2.171  0.1644  0.7679 -1.7893
 6447TIP3    H240901   1.409   4.608   2.196 -0.6090  1.3276  0.4561
 6448TIP3   OH240902   4.468   0.911   1.874  0.2521 -0.0328  0.0428
 6448TIP3    H140903   4.413   0.856   1.817  0.1993 -1.2733  1.2388
 6448TIP3    H240904   4.405   0.959   1.928  0.3068  1.0534 -0.8056
 6449TIP3   OH240905   0.557   2.942   2.119 -0.1924  0.4418  0.2999
 6449TIP3    H140906   0.521   3.013   2.172 -1.5435 -0.1293  0.1887
 6449TIP3    H240907   0.492   2.872   2.125 -0.2834  0.2633 -1.9253
 6450TIP3   OH240908   3.974   3.157   0.052  0.1085  0.2402 -0.4869
 6450TIP3    H140909   3.889   3.158   0.009 -0.7080  0.9069  1.0846
 6450TIP3    H240910   3.954   3.155   0.146  1.7737  2.6273  0.0006
 6451TIP3   OH240911   0.995   2.495   7.937 -0.1464 -0.5725  0.1762
 6451TIP3    H140912   0.910   2.486   7.978 -1.2008  1.9059 -1.2247
 6451TIP3    H240913   1.057   2.501   8.010 -1.3787 -0.6788  1.2600
 6452TIP3   OH240914   2.039   3.416   0.431  0.0353  0.0827  0.4252
 6452TIP3    H140915   2.068   3.495   0.385 -2.7459  2.1897  1.9721
 6452TIP3    H240916   2.111   3.354   0.420  2.8824  3.1690  0.0042
 6453TIP3   OH240917   4.197   1.428   0.350 -0.2280 -0.3604  0.1376
 6453TIP3    H140918   4.147   1.369   0.405 -0.6118 -0.6005 -0.4628
 6453TIP3    H240919   4.190   1.391   0.262 -0.3140  0.4717 -0.2113
 6454TIP3   OH240920   6.395   6.517   0.644  0.4580  0.0266 -0.0553
 6454TIP3    H140921   6.363   6.536   0.732  1.4642  0.3975  0.2477
 6454TIP3    H240922   6.443   6.595   0.619 -0.0589  0.0319 -1.0569
 6455TIP3   OH240923   0.663   0.928   7.252 -0.4832 -0.2186  0.9218
 6455TIP3    H140924   0.586   0.943   7.196 -0.1481  0.3319  0.5960
 6455TIP3    H240925   0.737   0.958   7.199  0.0636 -1.6114  0.8628
 6456TIP3   OH240926   6.387   6.660   1.184 -0.0643  0.1148 -0.0123
 6456TIP3    H140927   6.373   6.600   1.257 -1.1184 -1.4543 -1.4272
 6456TIP3    H240928   6.299   6.679   1.152  0.3945  0.6366 -0.9800
 6457TIP3   OH240929   4.686   2.584   0.570  0.0862  0.7816  0.8531
 6457TIP3    H140930   4.678   2.505   0.516 -0.0521  0.7052  0.9854
 6457TIP3    H240931   4.657   2.655   0.512  2.0415  1.0103  0.0776
 6458TIP3   OH240932   4.290   6.582   1.707 -0.8138 -0.3647  0.5228
 6458TIP3    H140933   4.221   6.621   1.653  1.6683  2.7776 -0.7018
 6458TIP3    H240934   4.315   6.503   1.660 -1.7702 -0.1213 -0.4497
 6459TIP3   OH240935   6.914   3.150   2.181 -0.0739 -0.4182  0.3918
 6459TIP3    H140936   6.978   3.196   2.236  1.1372 -3.5768  1.8995
 6459TIP3    H240937   6.842   3.130   2.240 -1.9281  1.8581 -0.9545
 6460TIP3   OH240938   5.108   6.411   0.163 -0.1504 -0.5187 -0.2947
 6460TIP3    H140939   5.203   6.419   0.153 -0.2388  0.2811 -0.5376
 6460TIP3    H240940   5.084   6.480   0.225 -0.5635 -0.7623 -0.1807
 6461TIP3   OH240941   3.442   1.751   1.407  0.5798 -0.2200 -0.6044
 6461TIP3    H140942   3.493   1.677   1.442  0.9912 -0.1024 -0.9498
 6461TIP3    H240943   3.351   1.724   1.419  0.7187 -1.1241 -1.4123
 6462TIP3   OH240944   2.776   0.425   2.782 -0.3238 -0.2338 -0.5690
 6462TIP3    H140945   2.711   0.470   2.836  0.7104  0.7908 -0.1168
 6462TIP3    H240946   2.790   0.341   2.826 -0.0917  0.2575  0.3332
 6463TIP3   OH240947   6.408   2.840   1.296  0.2835  0.3529  0.2566
 6463TIP3    H140948   6.344   2.896   1.253 -0.7076 -0.9163  0.0041
 6463TIP3    H240949   6.449   2.791   1.224  0.4774  0.0997  0.5351
 6464TIP3   OH240950   5.363   4.717   7.669  0.0767 -0.1645 -0.1328
 6464TIP3    H140951   5.407   4.776   7.608 -2.0329  1.1416 -0.4978
 6464TIP3    H240952   5.407   4.633   7.656  2.7656  1.1088 -0.0565
 6465TIP3   OH240953   5.226   3.289   0.262  0.0225 -0.3682 -0.3971
 6465TIP3    H140954   5.146   3.316   0.307  0.3821 -0.2825  0.1929
 6465TIP3    H240955   5.204   3.296   0.169 -0.3366  0.6312 -0.2492
 6466TIP3   OH240956   1.587   3.778   2.091  0.0465 -0.2563  0.5567
 6466TIP3    H140957   1.602   3.791   1.997 -0.0923  0.4942  0.6312
 6466TIP3    H240958   1.658   3.722   2.119  0.3049 -0.1757  0.0728
 6467TIP3   OH240959   3.820   4.060   7.579  0.1971 -0.5057 -0.0429
 6467TIP3    H140960   3.800   3.969   7.561  0.6452 -0.7254  0.5541
 6467TIP3    H240961   3.758   4.110   7.525 -1.0973 -1.1509  0.8115
 6468TIP3   OH240962   0.218   0.903   2.257  0.1247 -0.1386 -0.7308
 6468TIP3    H140963   0.289   0.966   2.242 -0.2126  0.4941  0.2464
 6468TIP3    H240964   0.169   0.939   2.331 -0.0077 -1.6120 -0.0614
 6469TIP3   OH240965   0.222   5.250   0.537  0.5611 -0.3712  0.8262
 6469TIP3    H140966   0.143   5.230   0.587 -1.0995  2.1735 -0.5467
 6469TIP3    H240967   0.246   5.338   0.566  1.0283  0.1430 -0.9916
 6470TIP3   OH240968   0.274   0.044   2.417 -0.1083  0.2491 -0.8331
 6470TIP3    H140969   0.219  -0.020   2.462  0.7318 -0.4513 -0.7781
 6470TIP3    H240970   0.306  -0.002   2.340  3.5876 -0.8168  1.1245
 6471TIP3   OH240971   0.348   4.950   0.256 -0.4369 -0.2196 -0.0188
 6471TIP3    H140972   0.436   4.929   0.225  0.2880  2.3031  0.0848
 6471TIP3    H240973   0.290   4.921   0.185  0.6375 -0.3136 -0.8864
 6472TIP3   OH240974   1.696   2.490   7.403 -0.1381  0.1140 -0.9999
 6472TIP3    H140975   1.671   2.493   7.495  1.8471 -0.9697 -0.3496
 6472TIP3    H240976   1.616   2.468   7.356 -0.6044 -2.4724  0.8364
 6473TIP3   OH240977   5.745   5.517   8.437  0.4197 -0.3260 -0.1396
 6473TIP3    H140978   5.816   5.487   8.381  0.6212  0.1975 -0.1649
 6473TIP3    H240979   5.686   5.441   8.443  1.0110 -0.7895 -0.0494
 6474TIP3   OH240980   0.096   6.822   7.962 -0.1224  0.3055 -0.1703
 6474TIP3    H140981   0.070   6.872   7.885 -1.1613  0.9183  0.5611
 6474TIP3    H240982   0.077   6.879   8.036  0.6263 -0.3701  0.5681
 6475TIP3   OH240983   2.191   6.718   7.788 -0.3620  0.3636 -0.2686
 6475TIP3    H140984   2.100   6.696   7.769 -0.2821 -1.0094  0.7274
 6475TIP3    H240985   2.193   6.732   7.883  0.7316 -1.2258 -0.0127
 6476TIP3   OH240986   1.484   2.100   8.560 -0.5174  0.3967 -0.9785
 6476TIP3    H140987   1.389   2.109   8.570 -0.8513 -1.4882 -2.1141
 6476TIP3    H240988   1.496   2.016   8.517  1.5566  1.6223 -2.9655
 6477TIP3   OH240989   2.268   0.915   7.284  0.2328 -0.3939  0.2734
 6477TIP3    H140990   2.357   0.880   7.277  0.4724  0.4136 -1.2214
 6477TIP3    H240991   2.241   0.930   7.194  0.2652  3.4612  0.7161
 6478TIP3   OH240992   2.124   4.214   0.417  0.1500 -0.3161  0.2187
 6478TIP3    H140993   2.104   4.132   0.463 -0.2180 -0.6703 -0.5634
 6478TIP3    H240994   2.040   4.244   0.384  0.6232 -0.8993 -1.6018
 6479TIP3   OH240995   5.341   4.980   8.462 -0.4696 -0.5250  0.4415
 6479TIP3    H140996   5.354   4.920   8.389 -1.2720 -0.3817  0.1738
 6479TIP3    H240997   5.409   4.956   8.525 -0.2616 -1.1590 -0.0155
 6480TIP3   OH240998   4.025   0.808   2.213 -0.9362 -0.4441  0.6645
 6480TIP3    H140999   3.983   0.807   2.127 -2.1545  0.9241  1.2107
 6480TIP3    H241000   4.106   0.857   2.199 -1.4169  0.2962  0.4141
 6481TIP3   OH241001   2.097   0.007   0.733  0.0614  0.2641  0.0645
 6481TIP3    H141002   2.182  -0.027   0.762  0.3981  1.3761  0.4536
 6481TIP3    H241003   2.116   0.094   0.699 -0.8057  0.1822 -0.6834
 6482TIP3   OH241004   5.783   1.098   1.018  0.2174 -0.7189 -0.2904
 6482TIP3    H141005   5.702   1.139   0.986  1.3878  0.1690 -2.2865
 6482TIP3    H241006   5.787   1.014   0.974  0.5376 -0.6127 -0.4705
 6483TIP3   OH241007   1.841   3.528   2.423  0.3608  0.5025 -0.2075
 6483TIP3    H141008   1.890   3.585   2.362 -0.1012  1.5255  0.3533
 6483TIP3    H241009   1.866   3.439   2.397  0.8521  0.9384 -1.3253
 6484TIP3   OH241010   6.696   2.945   7.701 -0.2907  0.1123 -0.4739
 6484TIP3    H141011   6.778   2.953   7.751 -0.0430 -0.8598 -0.7219
 6484TIP3    H241012   6.677   3.035   7.674 -1.0138  0.9012  2.2759
 6485TIP3   OH241013   5.531   1.020   6.974 -0.7984  0.5904 -0.2345
 6485TIP3    H141014   5.455   1.071   7.002 -2.3688  0.0935 -3.1698
 6485TIP3    H241015   5.504   0.929   6.981 -0.1482  0.3715 -0.4522
 6486TIP3   OH241016   4.779   2.919   7.578  0.0785 -0.2223 -0.0243
 6486TIP3    H141017   4.768   2.912   7.673 -0.9790  0.5804 -0.0664
 6486TIP3    H241018   4.848   2.985   7.568  0.7128 -0.8386  0.1796
 6487TIP3   OH241019   1.411   5.252   1.909 -0.3090  0.3617 -0.0675
 6487TIP3    H141020   1.493   5.218   1.873 -0.6150 -1.4078  0.8188
 6487TIP3    H241021   1.435   5.285   1.995 -0.3719  0.6571 -0.1618
 6488TIP3   OH241022   3.103   6.724   7.970  0.4185 -0.0574 -0.2151
 6488TIP3    H141023   3.078   6.795   8.029 -0.1218 -0.9168  0.6221
 6488TIP3    H241024   3.031   6.719   7.907  0.3648  0.0296 -0.1605
 6489TIP3   OH241025   2.357   3.079   1.702  0.7686 -0.0280 -0.1697
 6489TIP3    H141026   2.406   3.045   1.777 -1.0775 -1.2021  0.5868
 6489TIP3    H241027   2.273   3.106   1.740  0.1216  0.1631 -1.6910
 6490TIP3   OH241028   6.769   5.009   0.921 -0.0803  0.4819 -0.3347
 6490TIP3    H141029   6.849   4.957   0.930  0.2397  1.2714  2.1313
 6490TIP3    H241030   6.705   4.965   0.978 -0.5421  1.4154 -0.1065
 6491TIP3   OH241031   3.113   2.881   1.217 -0.1726 -0.0257  0.1979
 6491TIP3    H141032   3.096   2.789   1.195 -0.3017 -0.3196  1.3994
 6491TIP3    H241033   3.176   2.911   1.152  0.4509 -1.1998  0.2330
 6492TIP3   OH241034   1.811   2.185   7.837 -0.0464  0.5785  0.4693
 6492TIP3    H141035   1.819   2.092   7.861 -3.2442  0.8460  3.5287
 6492TIP3    H241036   1.898   2.221   7.852  0.9089 -1.6259  0.7088
 6493TIP3   OH241037   4.563   3.823   2.742 -0.1185 -0.3064  0.2636
 6493TIP3    H141038   4.611   3.906   2.742 -0.3743 -0.1592 -0.1603
 6493TIP3    H241039   4.502   3.831   2.816  1.1452 -0.8719  1.4175
 6494TIP3   OH241040   3.846   1.629   1.795 -0.0470  0.0862 -0.2242
 6494TIP3    H141041   3.838   1.713   1.749  0.0440 -0.2033 -0.7690
 6494TIP3    H241042   3.941   1.617   1.805  0.0442 -0.9526 -2.0118
 6495TIP3   OH241043   3.109   2.427   2.376  0.4879 -0.6061  0.5172
 6495TIP3    H141044   3.064   2.454   2.456  2.2366 -1.4255  1.8490
 6495TIP3    H241045   3.201   2.447   2.393  0.9372 -1.1556 -1.1403
 6496TIP3   OH241046   1.044   5.221   2.294 -0.2464  0.2846 -0.1537
 6496TIP3    H141047   1.068   5.312   2.312 -1.1671  0.7816 -1.2853
 6496TIP3    H241048   0.990   5.196   2.369  0.3642  0.5268  0.3721
 6497TIP3   OH241049   4.846   6.152   1.658 -0.5649  0.1214  0.0931
 6497TIP3    H141050   4.915   6.128   1.720  0.2912  0.8424 -0.5385
 6497TIP3    H241051   4.894   6.181   1.580 -1.6028 -0.2482 -0.7039
 6498TIP3   OH241052   4.855   5.837   8.098  0.6306 -0.1668 -0.3729
 6498TIP3    H141053   4.873   5.840   8.004  1.2017 -0.0578 -0.2626
 6498TIP3    H241054   4.844   5.744   8.117  0.6261 -0.1991 -0.5310
 6499TIP3   OH241055   5.919   6.356   7.497 -0.7222 -0.6467  0.0897
 6499TIP3    H141056   5.879   6.417   7.558 -1.2015 -0.7030 -0.1658
 6499TIP3    H241057   5.985   6.309   7.549 -1.3918 -0.9656  0.6611
 6500TIP3   OH241058   5.213   6.180   2.745  0.2195  0.1361 -0.0331
 6500TIP3    H141059   5.284   6.135   2.790 -0.2998 -1.8264 -1.0554
 6500TIP3    H241060   5.211   6.267   2.785  3.2875  0.3437 -0.1061
 6501TIP3   OH241061   0.267   6.361   0.975  0.3432 -0.2249  0.5644
 6501TIP3    H141062   0.215   6.405   0.908 -0.2556 -1.7848 -0.0398
 6501TIP3    H241063   0.335   6.425   0.999  0.1286  0.6306 -0.9805
 6502TIP3   OH241064   3.782   4.591   6.745  0.0953 -0.1759 -0.0680
 6502TIP3    H141065   3.695   4.631   6.754  0.1165 -0.2037  0.2613
 6502TIP3    H241066   3.823   4.605   6.830 -0.3361 -1.9309  0.4584
 6503TIP3   OH241067   6.098   3.448   8.116 -0.4250 -0.0285 -0.5987
 6503TIP3    H141068   6.129   3.465   8.205 -2.3979 -1.7128  0.5102
 6503TIP3    H241069   6.078   3.535   8.081  0.6156  0.6871  0.4983
 6504TIP3   OH241070   1.192   3.822   0.917 -0.4027 -0.4487 -0.0487
 6504TIP3    H141071   1.195   3.865   1.002 -0.7746 -0.4901 -0.0150
 6504TIP3    H241072   1.131   3.749   0.929 -0.3756 -0.5175 -0.3208
 6505TIP3   OH241073   3.655   3.188   0.799  0.3924 -0.3066  0.0653
 6505TIP3    H141074   3.642   3.144   0.884  2.2697 -0.6678  0.2204
 6505TIP3    H241075   3.646   3.281   0.818 -1.0168 -0.4707  0.2741
 6506TIP3   OH241076   0.384   0.363   0.764 -0.6417  0.3443 -0.4481
 6506TIP3    H141077   0.441   0.389   0.692 -0.9639  0.5764 -0.6212
 6506TIP3    H241078   0.400   0.428   0.832  2.6888 -2.0269  1.3541
 6507TIP3   OH241079   4.332   1.012   0.359 -0.6252  0.0116  0.1194
 6507TIP3    H141080   4.345   1.041   0.450 -0.7089  0.9474 -0.1541
 6507TIP3    H241081   4.372   1.081   0.306  1.1224 -1.4379 -0.5484
 6508TIP3   OH241082   1.294   6.577   2.150  0.1262 -0.0712  0.2674
 6508TIP3    H141083   1.327   6.548   2.065 -1.5438 -0.0228 -0.4373
 6508TIP3    H241084   1.250   6.500   2.186 -0.1363  0.2281  0.5923
 6509TIP3   OH241085   3.132   3.487   2.626 -0.2230 -0.4217  0.0093
 6509TIP3    H141086   3.084   3.452   2.550 -1.4439 -1.6900  1.2835
 6509TIP3    H241087   3.116   3.422   2.696  1.4096  0.3576  1.1721
 6510TIP3   OH241088   0.860   2.791   8.167 -0.1676 -0.5129  0.1951
 6510TIP3    H141089   0.869   2.837   8.250  0.1627 -0.2334  0.0098
 6510TIP3    H241090   0.948   2.794   8.128 -0.3771 -0.4084 -0.2846
 6511TIP3   OH241091   6.041   6.777   7.202  0.6928  0.6176 -0.3237
 6511TIP3    H141092   5.961   6.726   7.208  1.3662 -0.4837 -0.3762
 6511TIP3    H241093   6.017   6.853   7.149 -0.0650 -0.2203 -1.2251
 6512TIP3   OH241094   2.963   2.653   1.840 -0.3488 -0.0911  0.5122
 6512TIP3    H141095   3.032   2.661   1.774 -0.9225 -0.6138 -0.1723
 6512TIP3    H241096   2.909   2.731   1.828 -0.5939 -0.3084  0.1924
 6513TIP3   OH241097   4.290   0.419   1.462 -0.4376  0.6437  0.0100
 6513TIP3    H141098   4.359   0.354   1.450  0.7276  1.9764 -0.7816
 6513TIP3    H241099   4.293   0.439   1.556 -1.7313 -1.3773  0.5379
 6514TIP3   OH241100   5.441   2.762   1.459  0.1507 -0.3445  0.1653
 6514TIP3    H141101   5.391   2.842   1.446 -1.5030 -1.5763 -1.7427
 6514TIP3    H241102   5.410   2.728   1.543 -1.7258 -0.6786 -0.6170
 6515TIP3   OH241103   1.860   1.362   8.550 -0.5572 -0.5556  0.0351
 6515TIP3    H141104   1.890   1.428   8.612 -1.6369  1.1959 -1.2124
 6515TIP3    H241105   1.778   1.397   8.516 -0.3290 -1.7620 -1.8951
 6516TIP3   OH241106   1.822   5.041   2.523 -0.0154  0.2517 -0.5702
 6516TIP3    H141107   1.896   5.101   2.514  0.2381  0.2348  1.0320
 6516TIP3    H241108   1.805   5.038   2.617 -0.2560 -1.9000 -0.6315
 6517TIP3   OH241109   5.569   5.173   0.503  0.6588 -0.0047 -0.0719
 6517TIP3    H141110   5.648   5.151   0.553  0.4361  1.2427  0.8861
 6517TIP3    H241111   5.504   5.193   0.570 -0.8411 -2.1021 -0.8211
 6518TIP3   OH241112   0.747   3.765   7.651  0.3700  0.2540  0.0360
 6518TIP3    H141113   0.725   3.852   7.683 -0.9270  0.0310 -0.2036
 6518TIP3    H241114   0.746   3.774   7.555 -0.6456 -0.2067 -0.0124
 6519TIP3   OH241115   5.799   6.407   0.337 -0.1107  0.2940  0.1243
 6519TIP3    H141116   5.844   6.486   0.368  1.5555 -0.8129  0.6830
 6519TIP3    H241117   5.793   6.351   0.415  1.4123 -1.3004 -0.8201
 6520TIP3   OH241118   5.519   0.706   8.359  0.3681 -0.0131 -0.0430
 6520TIP3    H141119   5.427   0.680   8.362  0.7693 -1.4857  0.0350
 6520TIP3    H241120   5.526   0.762   8.281 -0.3230 -1.0445 -0.8759
 6521TIP3   OH241121   3.529   1.584   2.220 -0.5908  0.5542 -0.3485
 6521TIP3    H141122   3.614   1.579   2.177 -0.3139  1.4350  0.0755
 6521TIP3    H241123   3.500   1.674   2.207 -1.1311  0.4620  0.1262
 6522TIP3   OH241124   4.282   5.906   7.906  0.0715  0.7063  0.0194
 6522TIP3    H141125   4.375   5.919   7.925 -0.3035  2.1929  0.9378
 6522TIP3    H241126   4.281   5.874   7.816  1.5703 -1.2535  0.6039
 6523TIP3   OH241127   2.005   3.856   2.861  0.6640 -0.1146  0.3155
 6523TIP3    H141128   2.053   3.796   2.918  0.2138 -0.7440  0.0399
 6523TIP3    H241129   1.932   3.804   2.827  0.1474  0.6482  0.2311
 6524TIP3   OH241130   6.128   2.713   2.536  0.3566  0.2293  0.4242
 6524TIP3    H141131   6.087   2.795   2.563  0.2476  0.4296 -0.3191
 6524TIP3    H241132   6.055   2.655   2.516  0.4336 -0.1395  1.2104
 6525TIP3   OH241133   3.800   6.647   1.018 -0.8984  0.0587 -0.0602
 6525TIP3    H141134   3.820   6.647   1.112 -2.3407 -0.8142  0.2721
 6525TIP3    H241135   3.853   6.576   0.983  0.5639  1.1514 -0.1480
 6526TIP3   OH241136   4.518   0.326   1.632  0.0675 -0.1537  0.4467
 6526TIP3    H141137   4.537   0.420   1.640 -1.0741  0.1519 -0.1585
 6526TIP3    H241138   4.478   0.302   1.715  1.2995 -0.3525  0.9929
 6527TIP3   OH241139   4.251   0.467   0.699  0.0281 -0.0426 -0.4142
 6527TIP3    H141140   4.344   0.490   0.706 -0.3544  1.1888  1.1683
 6527TIP3    H241141   4.206   0.551   0.693 -1.0084 -0.6305 -1.1854
 6528TIP3   OH241142   3.886   0.018   0.964 -0.2503  0.0744 -0.1719
 6528TIP3    H141143   3.794   0.043   0.960 -0.3495 -0.4155 -1.8014
 6528TIP3    H241144   3.886  -0.072   0.997 -0.4546 -0.2555 -1.0307
 6529TIP3   OH241145   5.664   6.291   0.892  0.0993  0.4591  0.0343
 6529TIP3    H141146   5.685   6.225   0.826 -0.6287 -0.6759  0.8939
 6529TIP3    H241147   5.568   6.291   0.896  0.1303 -0.1657  1.6997
 6530TIP3   OH241148   6.715   4.622   7.423 -0.4577 -0.2359 -0.2858
 6530TIP3    H141149   6.641   4.574   7.461 -0.9868  0.0035 -0.9907
 6530TIP3    H241150   6.783   4.619   7.490 -0.4206 -2.0956 -0.3706
 6531TIP3   OH241151   1.384   6.881   1.842 -0.2637  0.0364 -0.3022
 6531TIP3    H141152   1.379   6.787   1.858 -0.4876  0.0497 -0.2904
 6531TIP3    H241153   1.338   6.894   1.759 -1.9814  0.3883  0.6537
 6532TIP3   OH241154   3.223   6.833   7.286 -0.4998 -0.0392 -0.2369
 6532TIP3    H141155   3.284   6.809   7.356  0.9354 -1.3313 -1.8475
 6532TIP3    H241156   3.220   6.929   7.290 -1.0144 -0.0986  2.0060
 6533TIP3   OH241157   5.205   0.669   7.776  0.2951 -0.6450 -0.3363
 6533TIP3    H141158   5.223   0.644   7.685  0.8189 -0.0830 -0.3953
 6533TIP3    H241159   5.273   0.733   7.797 -0.8332  0.5476 -0.1138
 6534TIP3   OH241160   1.148   6.562   7.215 -0.1994  0.1211  0.0383
 6534TIP3    H141161   1.181   6.641   7.172  1.5493 -1.0952 -0.9851
 6534TIP3    H241162   1.089   6.523   7.151 -1.7278  0.9791  0.8719
 6535TIP3   OH241163   5.324   4.805   8.241 -0.6509  0.4281 -0.1673
 6535TIP3    H141164   5.267   4.728   8.246 -0.1895  0.0076 -0.9917
 6535TIP3    H241165   5.310   4.838   8.152 -0.9102  1.3621  0.2092
 6536TIP3   OH241166   3.798   0.454   7.218 -0.1286  0.0911  0.3869
 6536TIP3    H141167   3.855   0.385   7.184 -0.0913 -1.2755  2.9668
 6536TIP3    H241168   3.829   0.470   7.307 -2.6919  0.4797  1.3164
 6537TIP3   OH241169   1.960   0.807   0.761 -0.3948 -0.4300 -0.5103
 6537TIP3    H141170   2.049   0.831   0.787 -0.0713 -1.4407 -0.6293
 6537TIP3    H241171   1.951   0.842   0.672 -0.1481 -0.2317 -0.4581
 6538TIP3   OH241172   5.864   0.750   0.409 -1.0304  0.3029  0.4459
 6538TIP3    H141173   5.780   0.796   0.410 -1.0955  0.1802  0.7587
 6538TIP3    H241174   5.880   0.731   0.317 -0.1230  2.5479  0.0706
 6539TIP3   OH241175   2.008   2.038   0.891 -0.2502 -0.1814 -0.3694
 6539TIP3    H141176   2.043   2.036   0.980  0.2995 -1.0331 -0.5962
 6539TIP3    H241177   2.072   2.088   0.841 -0.5665  0.3107 -0.2997
 6540TIP3   OH241178   1.662   5.557   7.858 -0.3278 -0.1306 -0.6638
 6540TIP3    H141179   1.739   5.504   7.838  0.5852  1.0206 -0.3077
 6540TIP3    H241180   1.682   5.598   7.942 -2.5060 -1.9255  0.8317
 6541TIP3   OH241181   1.648   1.191   7.806 -0.3838  0.3442  0.0577
 6541TIP3    H141182   1.661   1.200   7.900  1.8531 -0.4895 -0.1282
 6541TIP3    H241183   1.681   1.104   7.785 -0.3273  0.7334 -1.5946
 6542TIP3   OH241184   3.950   2.089   2.757 -0.4509  0.1512  0.0770
 6542TIP3    H141185   3.925   2.010   2.806  0.6956  0.2683  0.8711
 6542TIP3    H241186   4.012   2.058   2.691  0.0793  0.4005  0.4562
 6543TIP3   OH241187   2.642   3.774   0.595 -0.0185 -0.1399  0.2030
 6543TIP3    H141188   2.626   3.830   0.672  0.4330  0.3551 -0.0532
 6543TIP3    H241189   2.590   3.814   0.526  0.3622  0.0125  0.0004
 6544TIP3   OH241190   0.593   4.344   1.820 -0.3281 -0.7727  0.2367
 6544TIP3    H141191   0.682   4.380   1.810 -0.3758 -0.7969 -0.2945
 6544TIP3    H241192   0.574   4.355   1.913 -0.4323  0.8350  0.0679
 6545TIP3   OH241193   0.926   3.244   7.441  0.3581  0.0552  0.2527
 6545TIP3    H141194   0.954   3.289   7.520  2.3557  0.6057 -0.6920
 6545TIP3    H241195   0.864   3.305   7.400 -2.2891 -1.0893  2.2842
 6546TIP3   OH241196   0.557   0.924   8.404  0.3325  0.3740 -0.0946
 6546TIP3    H141197   0.503   0.917   8.325  1.3812 -1.4615 -0.7200
 6546TIP3    H241198   0.641   0.956   8.372  0.5492  0.2777  0.3744
 6547TIP3   OH241199   2.244   3.337   1.593  0.1909  0.1305  0.3254
 6547TIP3    H141200   2.196   3.308   1.671  0.0537  1.7824  0.8981
 6547TIP3    H241201   2.319   3.277   1.587 -1.2501 -1.7336  0.1108
 6548TIP3   OH241202   4.460   5.718   1.457  0.3509 -0.0748 -0.1062
 6548TIP3    H141203   4.472   5.653   1.526 -0.7980 -0.0711  0.1140
 6548TIP3    H241204   4.424   5.668   1.383  0.4453  0.1358 -0.2966
 6549TIP3   OH241205   3.280   3.931   7.490  0.8426 -0.1491 -0.1026
 6549TIP3    H141206   3.194   3.891   7.474  0.3191  0.8413  0.1822
 6549TIP3    H241207   3.330   3.913   7.410 -0.3695  1.1649 -1.2031
 6550TIP3   OH241208   6.582   0.102   7.831  0.1555 -0.1927 -0.2896
 6550TIP3    H141209   6.551   0.177   7.782 -1.1660 -0.4058  0.1893
 6550TIP3    H241210   6.644   0.059   7.772 -0.5730  0.1625 -1.3393
 6551TIP3   OH241211   2.498   2.197   8.412  0.3094 -0.0914 -0.2417
 6551TIP3    H141212   2.572   2.199   8.473 -0.9070  0.7178  1.2471
 6551TIP3    H241213   2.435   2.138   8.453 -1.1521  1.6217  0.0674
 6552TIP3   OH241214   5.518   4.980   1.378  0.3951  0.7437  0.3752
 6552TIP3    H141215   5.589   5.026   1.334  0.1906  0.3869 -0.3443
 6552TIP3    H241216   5.481   4.922   1.311  0.1086  0.1486  1.0299
 6553TIP3   OH241217   5.717   1.043   7.186 -0.0273  0.4889 -0.2192
 6553TIP3    H141218   5.659   1.059   7.112  0.6002  2.6144 -0.3211
 6553TIP3    H241219   5.659   1.026   7.260 -0.7043  0.1304 -0.8301
 6554TIP3   OH241220   3.893   5.764   0.883  0.0550 -0.9047  0.2650
 6554TIP3    H141221   3.816   5.741   0.934  0.0679 -2.5080 -0.4003
 6554TIP3    H241222   3.966   5.724   0.929  0.2352 -1.1525 -0.2265
 6555TIP3   OH241223   0.035   1.420   6.846 -0.5800 -0.0213 -0.4432
 6555TIP3    H141224   0.019   1.451   6.935  1.5668 -0.8710  0.3190
 6555TIP3    H241225   0.118   1.372   6.853 -0.9949 -1.1581 -2.6599
 6556TIP3   OH241226   1.412   3.006   0.752 -0.0462 -1.0777  0.2218
 6556TIP3    H141227   1.416   2.915   0.781  1.7465 -1.0416  0.2457
 6556TIP3    H241228   1.495   3.044   0.783 -0.2800  0.2671 -0.7115
 6557TIP3   OH241229   2.580   0.737   1.083 -0.3063  0.8835  0.4205
 6557TIP3    H141230   2.581   0.824   1.044  2.3945  1.7872  2.2399
 6557TIP3    H241231   2.649   0.739   1.149 -0.4374 -2.5282  0.8500
 6558TIP3   OH241232   5.288   6.681   8.165  0.2528  0.9560  0.1663
 6558TIP3    H141233   5.226   6.610   8.150  1.3653  0.3216 -1.8524
 6558TIP3    H241234   5.237   6.761   8.151  0.0136  0.4379 -2.3956
 6559TIP3   OH241235   2.624   5.905   7.054 -0.3307  0.0107 -0.0689
 6559TIP3    H141236   2.596   5.905   6.963 -0.0980 -3.3058 -0.2462
 6559TIP3    H241237   2.719   5.913   7.050 -0.4104  1.0574 -0.0295
 6560TIP3   OH241238   4.595   2.778   0.392  0.5188 -0.2062  0.4033
 6560TIP3    H141239   4.622   2.869   0.403 -0.5892  0.3665 -1.1769
 6560TIP3    H241240   4.648   2.746   0.319 -1.9089  0.5314 -1.8522
 6561TIP3   OH241241   2.779   3.766   2.614  0.0211 -0.2626  0.5488
 6561TIP3    H141242   2.838   3.761   2.689  0.8498 -1.0562 -0.1256
 6561TIP3    H241243   2.739   3.853   2.620 -0.1363 -0.4212  2.0483
 6562TIP3   OH241244   1.901   5.132   8.116 -0.1517 -0.0989 -0.1191
 6562TIP3    H141245   1.854   5.050   8.129 -0.4167  0.1322  0.4043
 6562TIP3    H241246   1.894   5.148   8.022 -1.3841  0.0742 -0.0202
 6563TIP3   OH241247   2.391   1.623   7.850  0.3868  0.5705  0.6454
 6563TIP3    H141248   2.361   1.689   7.913  0.7970  0.9018  0.5022
 6563TIP3    H241249   2.415   1.673   7.773 -2.8153 -0.0429 -0.9102
 6564TIP3   OH241250   3.787   1.338   8.234 -0.1662 -0.6972  0.0518
 6564TIP3    H141251   3.841   1.363   8.309  0.7619 -3.5382  0.4560
 6564TIP3    H241252   3.707   1.303   8.272 -0.4921 -0.4574 -0.3910
 6565TIP3   OH241253   2.336   6.400   1.435  0.1490 -0.1287  0.2642
 6565TIP3    H141254   2.417   6.428   1.479 -0.2829 -0.0559  1.0315
 6565TIP3    H241255   2.297   6.482   1.404 -0.7291  0.0901  1.8392
 6566TIP3   OH241256   0.813   6.164   0.813 -0.0934  0.9522 -0.1482
 6566TIP3    H141257   0.836   6.113   0.891 -1.3830 -0.1976 -0.4765
 6566TIP3    H241258   0.779   6.247   0.849 -1.7139  0.0160  0.6244
 6567TIP3   OH241259   4.790   0.493   0.922  0.4526 -0.2619 -0.0883
 6567TIP3    H141260   4.747   0.579   0.915 -0.9295 -1.0331 -2.2408
 6567TIP3    H241261   4.882   0.511   0.903  0.0184  0.6531 -1.5344
 6568TIP3   OH241262   3.018   3.949   1.227 -0.0904 -0.0448 -0.1492
 6568TIP3    H141263   3.011   3.984   1.316 -0.7746 -0.0856 -0.1832
 6568TIP3    H241264   3.079   3.875   1.236  2.4351  1.9031 -0.3268
 6569TIP3   OH241265   5.572   1.737   7.887 -0.3114 -0.2874 -0.0643
 6569TIP3    H141266   5.521   1.769   7.813 -1.5521 -0.2084  0.7992
 6569TIP3    H241267   5.641   1.802   7.899  0.3241 -0.6570 -1.5715
 6570TIP3   OH241268   5.419   4.430   7.588 -0.0592  0.6487  0.3218
 6570TIP3    H141269   5.513   4.425   7.605 -0.2010  1.1336  1.3102
 6570TIP3    H241270   5.409   4.398   7.498  0.7660 -1.6693  0.9834
 6571TIP3   OH241271   6.355   4.634   1.916  0.0581  0.3959 -0.3386
 6571TIP3    H141272   6.441   4.672   1.934  0.9701 -1.4240 -0.6629
 6571TIP3    H241273   6.322   4.684   1.841 -0.2863  2.7206  1.2454
 6572TIP3   OH241274   4.809   0.251   2.067 -0.7936  0.1177  0.1919
 6572TIP3    H141275   4.752   0.318   2.106  1.1751  1.0431  1.6387
 6572TIP3    H241276   4.791   0.172   2.116 -1.5832  0.1123 -0.0867
 6573TIP3   OH241277   5.206   1.848   1.044 -0.2837  0.6085 -0.1324
 6573TIP3    H141278   5.234   1.932   1.079 -0.6244  0.4871  0.4478
 6573TIP3    H241279   5.286   1.807   1.012  0.1789  0.3967  1.2306
 6574TIP3   OH241280   5.075   2.472   0.594 -0.0468 -0.6057  0.1055
 6574TIP3    H141281   5.095   2.388   0.635 -1.1310 -0.1546  1.6560
 6574TIP3    H241282   5.158   2.519   0.593  0.4818 -1.5357 -0.4159
 6575TIP3   OH241283   4.125   5.182   0.950 -0.0091 -0.1250 -0.0387
 6575TIP3    H141284   4.049   5.211   1.000  1.4463  0.6069  1.8437
 6575TIP3    H241285   4.124   5.236   0.871 -0.1272  1.6011  1.0905
 6576TIP3   OH241286   0.448   6.151   1.288 -0.0494 -0.0376  0.1596
 6576TIP3    H141287   0.445   6.101   1.370 -1.1818  0.5301  0.4811
 6576TIP3    H241288   0.360   6.140   1.251 -0.1898  1.3858  0.0404
 6577TIP3   OH241289   2.493   1.799   0.098 -0.1124 -0.4321 -0.2983
 6577TIP3    H141290   2.537   1.743   0.161 -1.6131 -1.2397  0.0853
 6577TIP3    H241291   2.552   1.873   0.085  2.3929 -2.4810 -1.5248
 6578TIP3   OH241292   0.152   2.699   1.345 -0.5903 -0.0749  0.0698
 6578TIP3    H141293   0.088   2.740   1.404 -0.6261 -0.0789  0.0346
 6578TIP3    H241294   0.112   2.708   1.258 -0.6782 -0.3375  0.0807
 6579TIP3   OH241295   6.598   4.613   8.013  0.3445  0.5186 -0.3889
 6579TIP3    H141296   6.662   4.542   8.016  0.7830  0.9252  0.1815
 6579TIP3    H241297   6.652   4.692   8.004 -0.1889  0.6417 -4.0768
 6580TIP3   OH241298   1.282   3.414   1.693 -0.0039 -0.4122 -0.6250
 6580TIP3    H141299   1.238   3.498   1.679 -0.5481 -0.3055  1.4493
 6580TIP3    H241300   1.357   3.434   1.748  0.2951 -1.1814 -0.7375
 6581TIP3   OH241301   6.200   1.188   1.241 -0.4265 -0.1271 -0.0390
 6581TIP3    H141302   6.190   1.143   1.325 -1.4545 -0.2183 -0.2037
 6581TIP3    H241303   6.212   1.280   1.265  1.8572 -0.4421  0.3058
 6582TIP3   OH241304   6.469   2.878   8.297  0.6473 -0.0747 -0.0994
 6582TIP3    H141305   6.528   2.946   8.263  2.0197  1.3068  4.3785
 6582TIP3    H241306   6.402   2.926   8.345  0.5239 -1.7933  1.5553
 6583TIP3   OH241307   5.795   2.474   1.349 -0.4115 -0.0014 -0.0610
 6583TIP3    H141308   5.882   2.499   1.318 -0.8159 -0.3646 -1.5553
 6583TIP3    H241309   5.810   2.395   1.403  0.0480 -0.9784 -1.5642
 6584TIP3   OH241310   6.624   4.912   7.812 -0.0889  0.3189  0.0592
 6584TIP3    H141311   6.621   4.964   7.731 -0.2825 -1.2590 -0.9982
 6584TIP3    H241312   6.703   4.859   7.803 -0.9973 -1.1089  0.0620
 6585TIP3   OH241313   3.460   0.164   1.647 -0.0802 -0.2986 -0.0080
 6585TIP3    H141314   3.551   0.138   1.659 -0.1159  0.3580  2.3406
 6585TIP3    H241315   3.448   0.172   1.553  2.6404  0.7645 -0.3382
 6586TIP3   OH241316   1.549   1.977   7.786  0.1763  0.3582 -0.1072
 6586TIP3    H141317   1.599   1.905   7.747 -2.6552 -1.5762 -0.4421
 6586TIP3    H241318   1.586   1.986   7.874 -0.5384 -2.9039  0.6753
 6587TIP3   OH241319   3.688   0.256   0.247 -0.0924 -0.1674  0.4037
 6587TIP3    H141320   3.601   0.264   0.208  0.4330 -0.7793 -0.9563
 6587TIP3    H241321   3.680   0.296   0.333 -1.6248  0.1094  0.1498
 6588TIP3   OH241322   6.272   4.264   7.835  0.5159  0.7787 -0.1849
 6588TIP3    H141323   6.271   4.351   7.794  0.5553  1.0107  0.3063
 6588TIP3    H241324   6.255   4.281   7.927 -1.6655  0.0864 -0.4116
 6589TIP3   OH241325   6.285   0.473   1.132 -0.3362 -0.5241  0.4541
 6589TIP3    H141326   6.365   0.484   1.184 -0.6214  1.2530  0.5970
 6589TIP3    H241327   6.294   0.538   1.062 -1.6613 -0.2691  0.5028
 6590TIP3   OH241328   6.475   1.673   1.121 -0.6625 -0.5987  0.1133
 6590TIP3    H141329   6.443   1.670   1.212  2.7218 -2.5660  1.4367
 6590TIP3    H241330   6.466   1.583   1.090  2.8428 -1.2054  0.4595
 6591TIP3   OH241331   2.075   5.039   7.204  0.2316 -0.5575 -0.2665
 6591TIP3    H141332   2.009   5.087   7.155  0.3863 -0.4041 -0.3260
 6591TIP3    H241333   2.090   4.959   7.154  0.1451 -0.5576 -0.2915
 6592TIP3   OH241334   5.007   6.153   6.997 -0.0178 -0.1032  0.4926
 6592TIP3    H141335   4.952   6.080   6.968  0.1306  0.1543 -0.4697
 6592TIP3    H241336   4.950   6.206   7.053 -1.3759  1.1745 -1.9574
 6593TIP3   OH241337   5.280   0.751   2.140 -0.3100  0.5909  0.3001
 6593TIP3    H141338   5.212   0.793   2.193 -0.9197 -0.7924  0.6550
 6593TIP3    H241339   5.310   0.821   2.081 -3.2040  0.8809 -1.0337
 6594TIP3   OH241340   4.946   6.011   2.955  0.0410 -0.4543  0.5419
 6594TIP3    H141341   5.026   6.018   3.008  0.4841 -2.4112  0.2176
 6594TIP3    H241342   4.977   5.980   2.870 -0.8645  0.8987 -0.3190
 6595TIP3   OH241343   4.692   1.824   0.283 -0.4101  0.2832  0.2741
 6595TIP3    H141344   4.656   1.755   0.339  1.8081 -1.3655 -0.1813
 6595TIP3    H241345   4.778   1.792   0.258  0.9260  3.4295  0.3387
 6596TIP3   OH241346   0.149   4.435   0.937  0.2997 -0.1329 -0.4714
 6596TIP3    H141347   0.239   4.450   0.967 -0.1083 -0.4980  1.0228
 6596TIP3    H241348   0.146   4.475   0.850  1.8783 -0.0394 -0.5240
 6597TIP3   OH241349   5.648   2.867   0.737  0.4297  0.3959 -0.1229
 6597TIP3    H141350   5.571   2.862   0.794 -0.0536  2.4199 -0.5373
 6597TIP3    H241351   5.722   2.866   0.797 -0.0880  3.6073  0.7244
 6598TIP3   OH241352   2.350   3.441   0.261 -0.8398 -0.1170 -0.2166
 6598TIP3    H141353   2.426   3.478   0.306 -0.8190 -0.9334  0.4317
 6598TIP3    H241354   2.323   3.367   0.315 -1.8353 -0.1056 -0.6741
 6599TIP3   OH241355   2.719   4.091   1.243 -0.2313 -0.0219 -0.3912
 6599TIP3    H141356   2.749   4.140   1.166  0.4283 -0.1669 -0.2347
 6599TIP3    H241357   2.800   4.065   1.287 -0.5914 -0.6089 -0.0718
 6600TIP3   OH241358   6.294   6.348   2.896  0.2956  0.2769  0.1690
 6600TIP3    H141359   6.328   6.390   2.975  0.2409 -0.1664  0.4326
 6600TIP3    H241360   6.227   6.288   2.928 -0.7551  1.1421 -0.3483
 6601TIP3   OH241361   5.681   1.301   2.189 -0.1889 -0.4746 -0.4808
 6601TIP3    H141362   5.625   1.235   2.148  1.2130 -1.7570 -0.4251
 6601TIP3    H241363   5.715   1.258   2.267 -0.9272  1.0991  0.7548
 6602TIP3   OH241364   4.128   6.399   1.843  0.0107 -0.3695  0.0597
 6602TIP3    H141365   4.154   6.350   1.765  0.4103 -0.1698  0.0639
 6602TIP3    H241366   4.184   6.477   1.842 -1.7796  0.9869 -0.9011
 6603TIP3   OH241367   6.737   1.862   1.405 -0.0183 -0.2565  0.3040
 6603TIP3    H141368   6.751   1.824   1.318 -1.1120 -1.1465  0.4983
 6603TIP3    H241369   6.660   1.918   1.396  0.3428  0.2914  0.5231
 6604TIP3   OH241370   0.053   5.255   1.487 -0.1955  0.0475 -0.0174
 6604TIP3    H141371   0.013   5.342   1.494 -0.6181 -0.2237  1.1721
 6604TIP3    H241372   0.002   5.201   1.547 -0.1088 -1.0942 -0.9475
 6605TIP3   OH241373   2.650   6.275   8.164 -0.1726  0.2159  0.2064
 6605TIP3    H141374   2.601   6.237   8.091  0.7949  1.0091 -0.8975
 6605TIP3    H241375   2.691   6.353   8.126 -0.0833  0.9406  1.7502
 6606TIP3   OH241376   6.560   1.936   8.384 -0.1727 -0.3056  0.5818
 6606TIP3    H141377   6.560   1.960   8.291  0.3677  1.1977  0.9398
 6606TIP3    H241378   6.482   1.978   8.420  1.0924  1.5501  1.3375
 6607TIP3   OH241379   5.682   4.240   7.893 -0.4204  0.2312  0.1802
 6607TIP3    H141380   5.763   4.269   7.851  0.3201  0.1806  1.5056
 6607TIP3    H241381   5.710   4.175   7.957 -1.5245  0.1188  0.5758
 6608TIP3   OH241382   3.331   6.199   1.699  0.5858  0.7085 -0.4756
 6608TIP3    H141383   3.321   6.123   1.641 -0.3926  0.4696 -0.0157
 6608TIP3    H241384   3.407   6.179   1.753 -0.2880 -0.4443  0.3686
 6609TIP3   OH241385   2.063   3.657   1.036 -0.2013  0.2870 -0.1440
 6609TIP3    H141386   2.157   3.646   1.050 -0.3079 -0.1348  0.3004
 6609TIP3    H241387   2.029   3.683   1.122 -0.1951  2.6840 -0.7830
 6610TIP3   OH241388   2.963   5.243   8.136  0.1543  0.0917  0.2965
 6610TIP3    H141389   2.979   5.148   8.140 -1.3830 -0.1623  2.7672
 6610TIP3    H241390   2.994   5.275   8.221 -1.0304  1.5024  0.2254
 6611TIP3   OH241391   3.565   0.208   8.358  0.3165 -0.1773  0.3205
 6611TIP3    H141392   3.546   0.298   8.330  1.1691  0.2802  1.1714
 6611TIP3    H241393   3.612   0.170   8.284  1.4335  0.6263  0.5839
 6612TIP3   OH241394   1.475   4.002   7.234  0.7670 -0.2587  0.3969
 6612TIP3    H141395   1.450   4.035   7.320  0.4205  2.0676 -0.5256
 6612TIP3    H241396   1.394   4.003   7.183  1.4670  1.2772 -0.7815
 6613TIP3   OH241397   1.669   0.619   8.087 -0.2819  0.0435  0.2729
 6613TIP3    H141398   1.661   0.704   8.130  3.3059  0.0158  1.3051
 6613TIP3    H241399   1.724   0.567   8.145  0.0849 -1.9841 -1.7289
 6614TIP3   OH241400   1.468   4.955   7.578 -0.5149  0.4410 -0.4728
 6614TIP3    H141401   1.395   4.972   7.638 -0.2130 -0.1219  0.0648
 6614TIP3    H241402   1.475   5.035   7.525 -2.4968 -0.0583 -1.5697
 6615TIP3   OH241403   3.906   2.554   1.454 -0.4842 -0.3180 -0.0227
 6615TIP3    H141404   3.913   2.548   1.359  0.7191 -1.0807  0.0900
 6615TIP3    H241405   3.990   2.591   1.482 -1.1405  0.6826  0.7004
 6616TIP3   OH241406   2.094   0.996   2.505 -0.5246  0.2565 -0.7852
 6616TIP3    H141407   2.155   1.016   2.435  1.2621 -0.1596  0.5799
 6616TIP3    H241408   2.052   1.080   2.525 -1.8415  0.1967 -2.9646
 6617TIP3   OH241409   6.075   5.049   0.082  0.2067  0.2015 -0.7362
 6617TIP3    H141410   6.065   4.979   0.018  1.5659  1.1816 -2.0751
 6617TIP3    H241411   6.143   5.105   0.046 -0.3362  1.8301  0.6625
 6618TIP3   OH241412   0.440   3.012   1.542  0.3662 -0.3004  0.1842
 6618TIP3    H141413   0.485   3.067   1.606 -0.4748  2.8603 -1.6948
 6618TIP3    H241414   0.351   3.048   1.538  0.0766 -1.0670 -1.9325
 6619TIP3   OH241415   0.660   5.957   2.995 -0.3309 -1.0754 -0.4028
 6619TIP3    H141416   0.747   5.918   2.993  0.6917  0.8592  1.7030
 6619TIP3    H241417   0.614   5.911   3.065 -0.8919 -1.7638 -1.1921
 6620TIP3   OH241418   4.210   5.965   6.940  0.5344 -0.2754  0.1760
 6620TIP3    H141419   4.123   5.970   6.901  1.2174  0.0200 -1.3667
 6620TIP3    H241420   4.226   6.053   6.974  0.6432 -0.0284 -0.4955
 6621TIP3   OH241421   2.551   2.316   1.822  0.1010 -0.3338 -0.0224
 6621TIP3    H141422   2.597   2.383   1.771 -1.1028  0.3433 -0.2473
 6621TIP3    H241423   2.616   2.286   1.886  0.2792  2.0649  1.0189
 6622TIP3   OH241424   3.878   0.900   7.959 -0.0156  1.2863  0.9853
 6622TIP3    H141425   3.903   0.825   8.013 -1.3923 -0.8501 -1.1453
 6622TIP3    H241426   3.896   0.873   7.869 -4.0770  1.8709 -0.2151
 6623TIP3   OH241427   5.965   4.660   0.664 -0.6748 -0.2591  0.1668
 6623TIP3    H141428   6.035   4.674   0.728 -1.0207 -0.3609  0.5722
 6623TIP3    H241429   5.973   4.567   0.639 -0.0131 -0.0131 -0.5752
 6624TIP3   OH241430   4.342   4.221   0.725  0.1490  0.0818 -0.0570
 6624TIP3    H141431   4.395   4.256   0.798 -0.6585 -0.0785  0.6234
 6624TIP3    H241432   4.274   4.288   0.712 -0.5120 -0.5217  0.2492
 6625TIP3   OH241433   0.985   0.494   2.381 -0.2769  0.0205  0.3771
 6625TIP3    H141434   0.899   0.490   2.340  0.4789  0.9259 -1.4317
 6625TIP3    H241435   1.045   0.462   2.313  0.8455 -0.4170  1.5332
 6626TIP3   OH241436   0.855   2.775   1.822 -0.5816  0.4713 -0.0181
 6626TIP3    H141437   0.915   2.848   1.840  0.0519 -0.2985  1.0790
 6626TIP3    H241438   0.768   2.816   1.820 -0.1237  1.4741 -0.8630
 6627TIP3   OH241439   1.579   0.475   7.585 -0.2549  0.0484  0.0621
 6627TIP3    H141440   1.520   0.404   7.611 -0.5931  0.8701  1.6277
 6627TIP3    H241441   1.612   0.510   7.667 -0.3710  1.9453 -0.6550
 6628TIP3   OH241442   1.070   0.141   0.208  0.0933 -0.1957  0.5069
 6628TIP3    H141443   1.166   0.143   0.198  0.0214  1.0533 -0.0745
 6628TIP3    H241444   1.051   0.214   0.267 -0.5602  0.0213  0.0341
 6629TIP3   OH241445   0.926   0.582   3.176 -0.2797 -0.5454 -0.2236
 6629TIP3    H141446   0.999   0.623   3.222 -1.9203  0.0549  1.9761
 6629TIP3    H241447   0.968   0.516   3.120  1.9557 -0.0450  0.7413
 6630TIP3   OH241448   4.192   3.633   0.921  0.4244 -0.8124  0.1167
 6630TIP3    H141449   4.233   3.612   0.837  2.5822 -2.0840  1.3841
 6630TIP3    H241450   4.099   3.635   0.903  0.8957  2.6918 -3.0928
 6631TIP3   OH241451   2.816   0.005   0.654  0.5806 -0.0776 -0.0192
 6631TIP3    H141452   2.735   0.046   0.625 -1.2354 -1.0313  3.2449
 6631TIP3    H241453   2.799  -0.089   0.652  1.7064 -0.3149  0.3916
 6632TIP3   OH241454   5.481   0.093   6.573  0.0353  0.5359  0.6590
 6632TIP3    H141455   5.559   0.060   6.527 -1.7253 -2.1215 -0.6873
 6632TIP3    H241456   5.433   0.014   6.599 -2.1733  2.0645  1.5290
 6633TIP3   OH241457   3.205   5.556   8.117 -0.2706  0.6911 -0.1924
 6633TIP3    H141458   3.264   5.582   8.187  0.8275  0.3147 -0.9384
 6633TIP3    H241459   3.120   5.545   8.159  1.0753 -3.5481  2.0301
 6634TIP3   OH241460   4.546   5.130   0.184 -0.2422  0.1270 -0.1395
 6634TIP3    H141461   4.522   5.213   0.144  0.8483 -0.4047 -2.0527
 6634TIP3    H241462   4.463   5.082   0.191 -0.8720  1.3165  0.9407
 6635TIP3   OH241463   0.828   4.491   1.828 -0.1905 -0.1055  0.3669
 6635TIP3    H141464   0.811   4.585   1.838  2.5318  0.3737  1.1254
 6635TIP3    H241465   0.866   4.483   1.740  1.1105 -0.2430  0.9363
 6636TIP3   OH241466   1.647   3.672   7.299  0.2720 -0.1553  0.2240
 6636TIP3    H141467   1.700   3.709   7.228  0.1847  0.5402  0.5087
 6636TIP3    H241468   1.711   3.639   7.362  0.3542 -0.2465  0.0939
 6637TIP3   OH241469   3.836   3.013   7.694  0.0480  0.0134  0.0647
 6637TIP3    H141470   3.808   2.971   7.612  0.1758 -0.3080  0.1825
 6637TIP3    H241471   3.882   2.943   7.741 -3.6427 -1.1974  2.3478
 6638TIP3   OH241472   0.771   3.502   0.019 -0.4100  0.0746 -0.0418
 6638TIP3    H141473   0.853   3.455   0.033 -0.9145 -0.8160  0.0552
 6638TIP3    H241474   0.788   3.560  -0.055 -0.4076 -1.9822 -1.7480
 6639TIP3   OH241475   6.259   6.230   7.927  0.3772 -0.0312  0.5506
 6639TIP3    H141476   6.262   6.320   7.962  0.5753  0.1946 -0.0418
 6639TIP3    H241477   6.347   6.196   7.942  0.1826 -0.2813  1.1643
 6640TIP3   OH241478   0.795   1.037   8.343  0.1656 -0.2102  0.3660
 6640TIP3    H141479   0.860   1.010   8.277  0.9016  1.6484  0.2850
 6640TIP3    H241480   0.835   1.111   8.388 -1.5018  0.3714  0.9822
 6641TIP3   OH241481   3.292   2.302   2.133  0.1362  0.3324  0.2471
 6641TIP3    H141482   3.370   2.257   2.102  1.5492  0.7656  2.9088
 6641TIP3    H241483   3.325   2.374   2.187 -2.1120  1.7292 -0.0967
 6642TIP3   OH241484   0.964   0.260   2.678 -0.1585 -0.3498  0.3684
 6642TIP3    H141485   0.986   0.225   2.764 -1.9314 -1.3551  0.4730
 6642TIP3    H241486   1.043   0.306   2.649  1.8607 -3.2740  0.8335
 6643TIP3   OH241487   2.601   1.423   8.532  0.8490  0.5011  0.6715
 6643TIP3    H141488   2.586   1.444   8.624  1.0151 -0.9007  1.0357
 6643TIP3    H241489   2.520   1.380   8.503  0.5620  1.4705 -0.0177
 6644TIP3   OH241490   5.837   4.447   7.506  0.1186  0.1251  0.1240
 6644TIP3    H141491   5.905   4.393   7.466  0.4094  2.6678 -3.2777
 6644TIP3    H241492   5.884   4.517   7.551 -0.2758  0.1669  0.4814
 6645TIP3   OH241493   4.127   0.441   7.229  0.3030 -0.2218 -0.5309
 6645TIP3    H141494   4.206   0.455   7.176  0.5116  0.3224 -0.0808
 6645TIP3    H241495   4.099   0.529   7.254 -0.8371 -0.3582 -1.2355
 6646TIP3   OH241496   3.172   6.088   7.295  0.4207  0.2858  0.0597
 6646TIP3    H141497   3.165   6.174   7.253 -0.7720 -0.0310 -0.4089
 6646TIP3    H241498   3.203   6.030   7.225 -0.9110 -0.1013 -0.2394
 6647TIP3   OH241499   0.399   2.194   0.301 -0.1979 -0.5847 -0.3484
 6647TIP3    H141500   0.447   2.267   0.262  1.7938 -1.1973  0.7908
 6647TIP3    H241501   0.335   2.236   0.359 -1.9752  0.2781 -2.7516
 6648TIP3   OH241502   4.436   0.250   7.951  0.2412  0.1379  0.0903
 6648TIP3    H141503   4.474   0.167   7.922  1.4045  0.5337  0.4373
 6648TIP3    H241504   4.492   0.317   7.913  1.3147  0.6993  2.4686
 6649TIP3   OH241505   4.243   4.411   2.365  0.2060  0.1198  0.2859
 6649TIP3    H141506   4.275   4.426   2.454 -0.4231 -0.0457  0.5458
 6649TIP3    H241507   4.316   4.369   2.320 -0.4135 -2.4938  1.5528
 6650TIP3   OH241508   3.530   4.442   7.150 -0.0386  0.3193 -0.1318
 6650TIP3    H141509   3.448   4.476   7.115 -0.3727 -0.3129  0.0156
 6650TIP3    H241510   3.582   4.520   7.169 -0.8506  0.7603  0.3535
 6651TIP3   OH241511   5.186   5.037   0.714  0.3713 -0.5669  0.3499
 6651TIP3    H141512   5.224   4.970   0.658 -0.9933 -2.5983  1.7355
 6651TIP3    H241513   5.146   5.100   0.654  1.8424 -0.8702 -0.9800
 6652TIP3   OH241514   3.965   0.616   1.428 -0.3564 -0.2765 -0.0148
 6652TIP3    H141515   3.921   0.534   1.453  0.5889 -0.6561  0.4274
 6652TIP3    H241516   3.928   0.681   1.488 -1.3312 -0.2999 -0.5597
 6653TIP3   OH241517   6.057   5.837   7.341 -0.4807 -0.3404  0.2548
 6653TIP3    H141518   6.110   5.763   7.313 -0.3745 -0.6358  1.2055
 6653TIP3    H241519   6.106   5.914   7.312 -0.2619 -0.6235 -0.1476
 6654TIP3   OH241520   1.405   2.434   1.226 -0.6227 -0.4377 -0.6117
 6654TIP3    H141521   1.497   2.410   1.236  0.0808  2.2106 -0.0916
 6654TIP3    H241522   1.384   2.485   1.304 -2.5003 -0.8184 -0.8175
 6655TIP3   OH241523   4.261   6.134   8.449 -0.0927  0.3502  0.0457
 6655TIP3    H141524   4.240   6.166   8.362 -1.7688  2.9517  1.2792
 6655TIP3    H241525   4.192   6.071   8.469 -0.1052  0.2694 -0.2498
 6656TIP3   OH241526   4.355   5.554   1.264 -0.8204 -0.1146  0.4571
 6656TIP3    H141527   4.272   5.507   1.270 -0.2707 -1.1265  0.3666
 6656TIP3    H241528   4.415   5.491   1.226  0.0043  0.5993  0.5474
 6657TIP3   OH241529   1.019   3.444   1.840  0.7002 -0.1722  1.0755
 6657TIP3    H141530   1.101   3.402   1.815  0.5741 -0.7271  1.5674
 6657TIP3    H241531   0.950   3.387   1.806  0.5266 -0.3008  1.6263
 6658TIP3   OH241532   4.578   5.264   7.528  0.2581 -0.3009 -0.2581
 6658TIP3    H141533   4.498   5.264   7.580  1.1667  1.1584  1.2342
 6658TIP3    H241534   4.560   5.203   7.456 -2.2603  0.1372 -0.0974
 6659TIP3   OH241535   0.298   6.540   0.692 -0.1579  0.3043 -0.1124
 6659TIP3    H141536   0.370   6.477   0.684 -0.6949 -0.6688  2.0477
 6659TIP3    H241537   0.319   6.591   0.770 -0.3818  2.0288 -1.1194
 6660TIP3   OH241538   2.350   1.742   8.454 -0.0623 -0.2704 -0.1160
 6660TIP3    H141539   2.408   1.746   8.530  0.5920  0.8487 -0.6533
 6660TIP3    H241540   2.330   1.834   8.435 -1.2772 -0.6035 -0.5034
 6661TIP3   OH241541   2.215   3.716   8.406 -0.4779  0.1883  0.0416
 6661TIP3    H141542   2.300   3.751   8.430  0.5863 -0.6286 -2.1908
 6661TIP3    H241543   2.161   3.793   8.387  0.3488  0.7065 -0.2665
 6662TIP3   OH241544   5.715   2.197   0.023  0.1919 -0.0650  0.2445
 6662TIP3    H141545   5.712   2.244  -0.060 -1.6030  0.6722  0.6710
 6662TIP3    H241546   5.752   2.112   0.002 -1.0083 -0.1986 -1.4787
 6663TIP3   OH241547   0.295   1.949   0.728 -0.1164 -0.3127  0.3117
 6663TIP3    H141548   0.263   1.873   0.681 -1.3126  0.2315  0.2020
 6663TIP3    H241549   0.225   1.970   0.790  0.1340  0.7608  0.2562
 6664TIP3   OH241550   2.997   6.620   1.856  0.5689 -0.3117  0.0211
 6664TIP3    H141551   3.006   6.526   1.836 -3.0342 -0.8601  0.3003
 6664TIP3    H241552   2.999   6.623   1.952  1.2473  0.0005  0.0008
 6665TIP3   OH241553   5.274   1.829   2.379 -0.2910 -0.5998  0.0682
 6665TIP3    H141554   5.330   1.806   2.453 -0.7235  2.0742  1.3220
 6665TIP3    H241555   5.202   1.878   2.417 -0.6986  0.5908 -2.0793
 6666TIP3   OH241556   4.084   6.232   1.588  0.1187 -0.4411  0.3803
 6666TIP3    H141557   3.989   6.238   1.580  0.0674  4.0161  1.7539
 6666TIP3    H241558   4.118   6.285   1.515  1.5568 -1.5380  0.2002
 6667TIP3   OH241559   4.357   4.470   8.297  0.1680  0.3211  0.3161
 6667TIP3    H141560   4.313   4.501   8.218  0.8342 -0.5006 -0.4012
 6667TIP3    H241561   4.371   4.376   8.282 -0.1829  0.0351  1.6490
 6668TIP3   OH241562   3.763   4.478   2.166 -0.0915 -0.9068  0.1844
 6668TIP3    H141563   3.851   4.459   2.135 -0.2998  0.5217 -1.4081
 6668TIP3    H241564   3.751   4.419   2.241  1.8090 -1.8571 -0.1937
 6669TIP3   OH241565   3.862   0.366   1.540  0.3055  0.0636 -0.2547
 6669TIP3    H141566   3.858   0.270   1.538 -1.3780  0.1007 -0.4043
 6669TIP3    H241567   3.917   0.386   1.615 -1.6866 -1.0432  1.6526
 6670TIP3   OH241568   6.593   4.650   0.757  0.3732 -0.7896 -0.8326
 6670TIP3    H141569   6.580   4.560   0.727 -1.4485 -1.5675  1.8822
 6670TIP3    H241570   6.656   4.642   0.829 -0.4418 -0.0426 -0.0153
 6671TIP3   OH241571   1.044   3.158   7.185  0.0525 -0.0673  0.0797
 6671TIP3    H141572   1.108   3.224   7.159  2.5760 -2.4006 -0.2053
 6671TIP3    H241573   1.044   3.162   7.281 -0.7439  1.1033  0.0483
 6672TIP3   OH241574   5.005   0.112   0.794 -0.1782  0.1660 -0.2797
 6672TIP3    H141575   5.014   0.096   0.700  0.6521 -0.9222 -0.0436
 6672TIP3    H241576   5.074   0.176   0.814  1.8532 -1.9697  0.0840
 6673TIP3   OH241577   5.381   2.491   2.617 -0.0747  0.2953  0.5156
 6673TIP3    H141578   5.311   2.473   2.680  0.5656  0.3170  1.2339
 6673TIP3    H241579   5.405   2.404   2.583  0.7661  0.1011  1.5777
 6674TIP3   OH241580   6.568   5.565   0.856  0.5026  0.6649 -0.7973
 6674TIP3    H141581   6.621   5.488   0.832 -1.4110 -1.3351  0.9389
 6674TIP3    H241582   6.483   5.549   0.815  0.2241  2.1421 -0.8279
 6675TIP3   OH241583   1.651   2.449   1.111 -0.1803 -0.2632  0.2163
 6675TIP3    H141584   1.661   2.426   1.019 -1.2866 -1.0279  0.2616
 6675TIP3    H241585   1.740   2.465   1.142  0.2063 -0.0367 -0.9707
 6676TIP3   OH241586   4.246   6.889   1.416 -0.1613  0.8836  0.5088
 6676TIP3    H141587   4.326   6.922   1.455  0.3494  0.6119 -0.2864
 6676TIP3    H241588   4.266   6.881   1.322 -1.6097  2.3144  0.0390
 6677TIP3   OH241589   0.300   4.368   7.307 -0.1009 -0.0759 -0.2888
 6677TIP3    H141590   0.324   4.363   7.214 -1.1271 -1.2817 -0.5223
 6677TIP3    H241591   0.231   4.434   7.311 -0.4339 -0.4116 -0.4751
 6678TIP3   OH241592   6.413   5.640   7.979  0.0768 -0.0423  0.5679
 6678TIP3    H141593   6.457   5.591   7.910 -0.4841 -0.2604  0.3561
 6678TIP3    H241594   6.378   5.718   7.936  0.4099  0.2255  0.7732
 6679TIP3   OH241595   5.972   2.892   8.183 -0.7252  0.1657  0.2627
 6679TIP3    H141596   6.041   2.934   8.132 -1.2697 -0.0215 -0.6591
 6679TIP3    H241597   6.004   2.803   8.199  0.3033  0.7975  1.9703
 6680TIP3   OH241598   1.133   3.216   1.543  0.0018  0.7731  0.0493
 6680TIP3    H141599   1.184   3.142   1.511 -1.0743  0.0783 -0.1129
 6680TIP3    H241600   1.198   3.281   1.571  1.0274  1.2875 -3.1867
 6681TIP3   OH241601   2.522   6.651   8.176  0.1467  0.2885 -0.2820
 6681TIP3    H141602   2.490   6.736   8.148 -0.2437 -0.2106 -1.4328
 6681TIP3    H241603   2.484   6.589   8.114 -0.6366 -0.8876  1.2850
 6682TIP3   OH241604   6.600   5.382   8.180  0.2558  0.6589 -0.0367
 6682TIP3    H141605   6.520   5.430   8.160  0.4597  0.7863 -0.5779
 6682TIP3    H241606   6.602   5.311   8.115  0.3726  0.4129  0.2344
 6683TIP3   OH241607   1.618   1.059   0.912 -0.3212 -0.3723  0.0852
 6683TIP3    H141608   1.597   0.991   0.848  3.7038 -2.3243  0.5039
 6683TIP3    H241609   1.575   1.030   0.992 -2.4966  0.2190 -0.7908
 6684TIP3   OH241610   6.052   1.779   0.367  0.9026  0.2678  0.1100
 6684TIP3    H141611   6.121   1.797   0.430  0.5311  0.6350  0.4165
 6684TIP3    H241612   6.059   1.685   0.350 -0.4415 -0.3202  2.4219
 6685TIP3   OH241613   5.173   1.491   7.876  0.3586  0.5317  0.0393
 6685TIP3    H141614   5.138   1.425   7.816 -0.5529 -0.3178  1.4577
 6685TIP3    H241615   5.242   1.446   7.924  2.5186  1.7798 -1.6943
 6686TIP3   OH241616   4.715   5.997   8.367  0.1937  0.2889 -0.2354
 6686TIP3    H141617   4.741   6.089   8.378 -1.7711  1.0133 -1.0830
 6686TIP3    H241618   4.787   5.958   8.317  0.7750  1.5285 -0.4157
 6687TIP3   OH241619   0.618   1.857   1.400  0.5302  0.5161 -0.0907
 6687TIP3    H141620   0.661   1.786   1.448  0.8747  0.1438 -0.9289
 6687TIP3    H241621   0.551   1.890   1.461 -1.1671 -1.9788 -0.4364
 6688TIP3   OH241622   6.234   3.454   7.528  0.5296  0.2695  0.1206
 6688TIP3    H141623   6.285   3.448   7.608 -1.9825 -0.4594  1.8160
 6688TIP3    H241624   6.251   3.371   7.482  1.1517  0.2102  0.4567
 6689TIP3   OH241625   6.425   6.823   0.638  0.0699  0.0261  0.3520
 6689TIP3    H141626   6.406   6.824   0.545  1.8441 -1.0278 -0.0770
 6689TIP3    H241627   6.507   6.871   0.647 -1.5189  2.7317  1.8332
 6690TIP3   OH241628   0.910   2.511   1.901  0.5575  0.0491  1.0296
 6690TIP3    H141629   0.920   2.602   1.872 -1.9307  1.4085  3.7563
 6690TIP3    H241630   0.820   2.489   1.877  0.8320 -1.3633  1.2320
 6691TIP3   OH241631   1.056   6.679   2.534 -0.0336  0.0964 -0.2961
 6691TIP3    H141632   1.063   6.584   2.542 -1.5866 -0.0559 -0.4569
 6691TIP3    H241633   1.144   6.707   2.507  0.6229 -1.2070  0.3911
 6692TIP3   OH241634   6.741   1.094   8.042 -0.1907  0.0731 -0.5168
 6692TIP3    H141635   6.762   1.036   7.969 -4.4934 -1.0412 -1.1380
 6692TIP3    H241636   6.807   1.073   8.109  1.1357 -2.2000 -2.3839
 6693TIP3   OH241637   1.033   0.270   6.904 -0.2486  0.4050 -0.0289
 6693TIP3    H141638   1.063   0.210   6.972 -1.0823 -0.0842 -0.0757
 6693TIP3    H241639   1.052   0.226   6.822  0.4985  0.8707 -0.1117
 6694TIP3   OH241640   0.283   3.455   7.629  0.0054 -0.9338  0.0476
 6694TIP3    H141641   0.288   3.536   7.680 -0.2285 -1.1039  0.3473
 6694TIP3    H241642   0.367   3.450   7.583 -0.4873  0.1399 -0.9886
 6695TIP3   OH241643   6.120   3.115   1.520  0.2645  0.9116  0.2303
 6695TIP3    H141644   6.164   3.121   1.605  0.1253 -0.5527  0.4447
 6695TIP3    H241645   6.189   3.133   1.456  0.6522  0.8854  0.6326
 6696TIP3   OH241646   0.325   3.967   0.946  0.6395 -0.2721 -0.0983
 6696TIP3    H141647   0.349   4.047   0.993  0.6809  0.5676 -1.5051
 6696TIP3    H241648   0.369   3.897   0.994  0.2937  0.4913  1.3819
 6697TIP3   OH241649   2.452   2.557   7.342 -0.2454 -0.2358  0.0599
 6697TIP3    H141650   2.423   2.516   7.261 -0.6345 -0.2507  0.2062
 6697TIP3    H241651   2.481   2.484   7.397 -0.3690 -0.2594  0.0925
 6698TIP3   OH241652   3.316   5.869   0.216 -0.4378  0.8660 -0.2008
 6698TIP3    H141653   3.347   5.853   0.305 -0.9706 -0.6981 -0.2705
 6698TIP3    H241654   3.347   5.957   0.196  1.0878  0.6334  0.9311
 6699TIP3   OH241655   3.307   4.806   6.897  0.3668  0.8553 -0.4807
 6699TIP3    H141656   3.280   4.884   6.946  0.3340 -0.4674  1.7043
 6699TIP3    H241657   3.225   4.771   6.861 -0.0335  0.2065  1.0270
 6700TIP3   OH241658   3.713   4.461   8.531 -0.3273  0.7071 -0.2576
 6700TIP3    H141659   3.701   4.555   8.514  0.5248  0.8936  0.1233
 6700TIP3    H241660   3.669   4.418   8.458 -2.5176  1.3378  0.6063
 6701TIP3   OH241661   5.491   5.446   0.063 -0.0245 -0.1954 -0.4531
 6701TIP3    H141662   5.497   5.386   0.138 -1.2161 -0.8574 -0.8703
 6701TIP3    H241663   5.537   5.400  -0.008  0.9202  0.3396 -0.2095
 6702TIP3   OH241664   2.686   3.523   0.128 -0.2977 -0.0247  0.0850
 6702TIP3    H141665   2.713   3.535   0.037  0.4222  0.8062  0.3983
 6702TIP3    H241666   2.608   3.578   0.137 -0.6943 -0.5388 -0.1734
 6703TIP3   OH241667   2.461   5.980   0.337  0.0123  0.2656 -0.2452
 6703TIP3    H141668   2.495   5.894   0.314  2.1855  0.9245  0.2909
 6703TIP3    H241669   2.396   5.999   0.269  0.5263 -1.1805 -1.1867
 6704TIP3   OH241670   1.303   2.470   2.546  0.3212 -0.3542 -0.2426
 6704TIP3    H141671   1.284   2.379   2.564  0.0855 -0.4813 -1.0769
 6704TIP3    H241672   1.316   2.474   2.451 -2.1632  0.9024 -0.6180
 6705TIP3   OH241673   3.400   4.672   0.091  0.5348  0.5993 -0.1511
 6705TIP3    H141674   3.356   4.593   0.122  2.2502 -0.8059 -1.1470
 6705TIP3    H241675   3.328   4.733   0.073 -0.8643 -0.8372  0.2825
 6706TIP3   OH241676   4.919   2.141   1.297  0.0777  0.3734 -0.0689
 6706TIP3    H141677   4.896   2.059   1.253 -0.4313 -0.1115  1.0659
 6706TIP3    H241678   4.849   2.202   1.272  1.1964  0.9405 -2.0750
 6707TIP3   OH241679   5.312   2.549   1.625 -0.3237 -0.1291 -0.1297
 6707TIP3    H141680   5.301   2.476   1.687  0.8390 -0.1672  0.0480
 6707TIP3    H241681   5.251   2.529   1.554 -1.3399 -0.3281  0.7653
 6708TIP3   OH241682   6.428   4.311   7.131 -0.3163  0.3260 -0.3756
 6708TIP3    H141683   6.437   4.219   7.106 -0.6313  0.3740 -0.6750
 6708TIP3    H241684   6.506   4.330   7.183 -1.3369 -0.7471  1.6741
 6709TIP3   OH241685   4.813   2.970   8.107  0.2458  0.7161  0.6351
 6709TIP3    H141686   4.727   2.953   8.145  0.7416 -1.1914  1.0118
 6709TIP3    H241687   4.812   2.922   8.024  1.1664  0.1220  0.9543
 6710TIP3   OH241688   3.057   0.979   7.366  0.3251 -0.0457 -0.1184
 6710TIP3    H141689   3.096   1.058   7.329  2.0639 -0.1849  1.2532
 6710TIP3    H241690   2.964   0.984   7.343  0.6019  1.8559 -0.9621
 6711TIP3   OH241691   5.527   0.880   0.657  0.7773 -0.5085 -0.4006
 6711TIP3    H141692   5.509   0.973   0.671  0.1675 -0.3595 -2.0203
 6711TIP3    H241693   5.501   0.863   0.567 -0.9204 -2.6761  0.3901
 6712TIP3   OH241694   6.408   3.437   2.442  0.0294  0.5929  0.2248
 6712TIP3    H141695   6.401   3.363   2.503 -1.7149  0.3332 -0.2341
 6712TIP3    H241696   6.402   3.514   2.498 -2.4545  0.3646  0.3718
 6713TIP3   OH241697   3.313   4.457   0.286 -0.1814  0.0014  0.7513
 6713TIP3    H141698   3.257   4.531   0.309  0.9821  1.2365 -0.2172
 6713TIP3    H241699   3.253   4.391   0.253 -1.2327  0.5740  1.4496
 6714TIP3   OH241700   0.178   6.757   8.402 -0.2917  0.4532  0.0283
 6714TIP3    H141701   0.148   6.770   8.492  1.4966  3.4930  0.3265
 6714TIP3    H241702   0.098   6.768   8.349 -1.0072  0.8108  1.1364
 6715TIP3   OH241703   1.540   5.368   0.089  0.4712 -0.3862 -0.5079
 6715TIP3    H141704   1.636   5.360   0.087  0.7116  1.7729 -0.1170
 6715TIP3    H241705   1.523   5.454   0.052 -1.2646 -0.3413  0.3112
 6716TIP3   OH241706   2.060   2.207   8.405 -0.4105  0.0204  0.3402
 6716TIP3    H141707   2.027   2.121   8.380  1.2041 -0.5693  0.1048
 6716TIP3    H241708   1.998   2.269   8.367 -0.3669 -0.9755 -1.4731
 6717TIP3   OH241709   1.950   1.708   1.235  0.2928 -0.4253  0.1866
 6717TIP3    H141710   1.938   1.657   1.314 -1.4354  0.7178  0.7168
 6717TIP3    H241711   2.005   1.653   1.179 -1.2396 -2.7504  0.8099
 6718TIP3   OH241712   2.260   1.564   1.249  0.2848 -0.4408  0.5406
 6718TIP3    H141713   2.229   1.540   1.161 -1.2173  0.3441  0.8160
 6718TIP3    H241714   2.351   1.537   1.250  0.5264  0.0912 -1.4939
 6719TIP3   OH241715   0.776   1.818   7.273  0.5451  0.4214  0.8093
 6719TIP3    H141716   0.748   1.758   7.204  1.0921 -0.3157  1.2166
 6719TIP3    H241717   0.724   1.793   7.350 -0.3330  1.4855  0.5790
 6720TIP3   OH241718   1.609   6.203   7.793 -0.1476  0.2371  0.6409
 6720TIP3    H141719   1.547   6.130   7.795  0.7691 -0.8234 -3.0026
 6720TIP3    H241720   1.662   6.191   7.872 -0.4897 -2.6758  0.5522
 6721TIP3   OH241721   1.938   6.883   1.796  0.5291  0.4075 -0.6197
 6721TIP3    H141722   1.982   6.943   1.856  0.0906 -0.7349  0.9055
 6721TIP3    H241723   1.963   6.795   1.827 -1.9628 -0.2623 -0.2767
 6722TIP3   OH241724   2.562   2.760   7.722  0.1896 -0.5285 -0.0006
 6722TIP3    H141725   2.495   2.809   7.674  1.5391  0.5473 -0.8637
 6722TIP3    H241726   2.603   2.704   7.656  2.1514  1.0540 -0.1951
 6723TIP3   OH241727   3.216   5.030   0.849  0.4364 -0.2966 -0.1107
 6723TIP3    H141728   3.231   4.970   0.922 -1.4040  0.0262  0.5707
 6723TIP3    H241729   3.269   4.994   0.777  1.1268 -1.4462  0.9408
 6724TIP3   OH241730   6.470   5.300   1.658  0.2820 -0.2560 -0.0786
 6724TIP3    H141731   6.536   5.257   1.603  1.3983  0.4641  0.6613
 6724TIP3    H241732   6.458   5.386   1.618 -0.9913 -0.7313 -0.7981
 6725TIP3   OH241733   6.404   3.834   0.905  0.3823  0.1032  0.2663
 6725TIP3    H141734   6.475   3.781   0.942 -0.1486 -0.8234 -0.0023
 6725TIP3    H241735   6.335   3.829   0.970  0.9465  1.9968  1.0969
 6726TIP3   OH241736   0.264   6.036   7.911 -0.4871 -0.3145  0.6141
 6726TIP3    H141737   0.263   6.111   7.970 -2.3472  0.0413  0.1830
 6726TIP3    H241738   0.334   5.980   7.945 -1.8166 -0.3854  3.4905
 6727TIP3   OH241739   2.466   0.324   1.137  0.5734 -0.4209 -0.3659
 6727TIP3    H141740   2.388   0.303   1.187  1.2224  0.1670  0.9332
 6727TIP3    H241741   2.472   0.254   1.072 -1.8266  0.3311 -1.4887
 6728TIP3   OH241742   0.682   3.053   1.430 -0.4518 -0.7322 -0.0558
 6728TIP3    H141743   0.591   3.046   1.461 -0.2718  0.0164  0.6879
 6728TIP3    H241744   0.732   2.996   1.487 -0.4983 -1.4387 -0.7080
 6729TIP3   OH241745   1.038   2.575   0.681  0.1443  0.0951 -0.2743
 6729TIP3    H141746   1.059   2.664   0.707  0.9850 -0.0479 -0.4209
 6729TIP3    H241747   0.953   2.557   0.721  0.1642  0.8114  0.1008
 6730TIP3   OH241748   4.017   6.476   0.993 -0.1945 -0.5661  0.5281
 6730TIP3    H141749   4.109   6.488   1.014 -0.4871  1.3347  0.8481
 6730TIP3    H241750   4.018   6.427   0.910  1.0820 -0.4836  0.4730
 6731TIP3   OH241751   5.765   2.831   7.701 -0.3648 -0.0565  0.0774
 6731TIP3    H141752   5.801   2.745   7.723  0.4750 -0.1392 -1.4192
 6731TIP3    H241753   5.796   2.889   7.770  0.4031 -0.6726  0.2662
 6732TIP3   OH241754   2.872   5.049   2.580 -0.0425  0.0396 -0.1667
 6732TIP3    H141755   2.903   5.129   2.623  0.2335  0.1649 -0.5973
 6732TIP3    H241756   2.951   5.000   2.560 -0.1502  0.1108 -0.7857
 6733TIP3   OH241757   0.871   1.072   7.466  0.5314  0.3785  0.3429
 6733TIP3    H141758   0.946   1.127   7.490  1.5711 -0.2896 -1.2801
 6733TIP3    H241759   0.815   1.130   7.414  0.7997  0.3852  0.0573
 6734TIP3   OH241760   0.108   4.533   2.337  0.2181 -0.3684  0.3217
 6734TIP3    H141761   0.015   4.513   2.344 -0.0123  0.6583  0.3608
 6734TIP3    H241762   0.148   4.453   2.303 -1.0000 -0.1030 -1.9047
 6735TIP3   OH241763   3.819   5.364   8.078 -0.2176 -0.2090 -0.5881
 6735TIP3    H141764   3.902   5.344   8.035  2.1023 -1.7068  3.9814
 6735TIP3    H241765   3.839   5.434   8.140 -1.8115 -1.8085  1.9051
 6736TIP3   OH241766   1.947   4.076   0.099  0.3716  0.7848 -0.4522
 6736TIP3    H141767   2.031   4.102   0.061  0.6668 -1.0713 -1.1369
 6736TIP3    H241768   1.968   4.002   0.156 -0.9223 -0.4466 -1.5163
 6737TIP3   OH241769   6.061   6.750   1.689 -0.1811 -0.1536  0.0336
 6737TIP3    H141770   5.973   6.761   1.653 -0.9922 -1.7486  1.4120
 6737TIP3    H241771   6.057   6.669   1.739  1.4318  0.9241  2.0904
 6738TIP3   OH241772   3.273   1.071   0.130  0.0544  0.3861 -0.0929
 6738TIP3    H141773   3.294   1.102   0.042 -0.6446 -3.8442 -2.0328
 6738TIP3    H241774   3.178   1.084   0.138  0.3904  2.6647  1.0366
 6739TIP3   OH241775   4.625   5.518   0.799  0.0595 -0.2325 -0.0074
 6739TIP3    H141776   4.703   5.572   0.807  0.1733 -0.4197  0.1811
 6739TIP3    H241777   4.654   5.440   0.752  0.0384 -0.4006  0.2545
 6740TIP3   OH241778   4.581   0.572   1.762  0.0766 -0.2250  0.4464
 6740TIP3    H141779   4.590   0.564   1.857  0.4566  0.2773  0.4562
 6740TIP3    H241780   4.595   0.665   1.744 -2.7126  0.2410  0.1874
 6741TIP3   OH241781   0.967   3.687   0.313 -0.5492 -0.3216 -0.3314
 6741TIP3    H141782   0.915   3.765   0.334 -0.7525 -0.6446  0.4070
 6741TIP3    H241783   0.995   3.700   0.223 -2.3030 -0.3689 -0.9036
 6742TIP3   OH241784   2.472   4.916   7.466  0.1673 -0.3556  0.7912
 6742TIP3    H141785   2.522   4.890   7.389  1.0294  0.6679  0.9947
 6742TIP3    H241786   2.406   4.977   7.433  1.2094  0.9125  0.9902
 6743TIP3   OH241787   2.909   2.105   2.487 -0.1386  0.2452  0.2825
 6743TIP3    H141788   2.978   2.104   2.554 -0.5078 -2.7579  0.7577
 6743TIP3    H241789   2.828   2.114   2.536 -0.2511  1.3906 -0.0854
 6744TIP3   OH241790   5.894   2.146   7.627  0.3939 -0.5393 -0.3471
 6744TIP3    H141791   5.911   2.200   7.704  0.3648 -1.8086  0.5809
 6744TIP3    H241792   5.887   2.208   7.555 -0.3670  0.7525  0.7954
 6745TIP3   OH241793   2.056   3.396   7.265  0.3975 -0.1486  0.6081
 6745TIP3    H141794   2.023   3.444   7.189 -0.2868 -1.3326  0.1280
 6745TIP3    H241795   2.137   3.355   7.233  1.2578  1.0567  1.1675
 6746TIP3   OH241796   2.401   2.449   7.081  0.6766 -0.3236  0.1199
 6746TIP3    H141797   2.486   2.465   7.040  0.0211  0.5001 -0.9656
 6746TIP3    H241798   2.389   2.354   7.073 -0.1866 -0.0708 -3.3006
 6747TIP3   OH241799   4.479   3.678   0.529  0.8686 -0.0280 -0.0976
 6747TIP3    H141800   4.415   3.648   0.593 -0.1878  0.7597 -0.7339
 6747TIP3    H241801   4.514   3.598   0.490 -0.8037 -0.4910 -0.7344
 6748TIP3   OH241802   2.436   2.744   0.802 -0.7304  0.2386 -0.1255
 6748TIP3    H141803   2.484   2.824   0.781  1.5398 -0.7987  0.7891
 6748TIP3    H241804   2.393   2.764   0.886  0.6376  0.2056  0.6056
 6749TIP3   OH241805   1.166   1.088   0.462 -0.3796 -0.0141 -0.0200
 6749TIP3    H141806   1.231   1.152   0.489  0.9615 -0.8160 -1.1875
 6749TIP3    H241807   1.164   1.095   0.366 -0.5464 -1.3791 -0.1363
 6750TIP3   OH241808   3.416   3.091   2.777  0.0188 -0.5803 -0.3294
 6750TIP3    H141809   3.374   3.116   2.859  1.2932 -2.3798  0.9485
 6750TIP3    H241810   3.439   2.999   2.789  3.5127  0.0255 -1.2293
 6751TIP3   OH241811   3.248   3.426   0.276 -0.4762 -0.2939  0.1043
 6751TIP3    H141812   3.243   3.521   0.284 -0.0345 -0.0867 -1.6155
 6751TIP3    H241813   3.337   3.409   0.247 -1.5019 -0.8653 -3.1321
 6752TIP3   OH241814   3.355   4.978   8.233 -0.0606  0.1568 -0.2589
 6752TIP3    H141815   3.411   5.049   8.203  1.3673 -1.0452 -0.5506
 6752TIP3    H241816   3.361   4.911   8.164  0.0207 -0.9631  0.8027
 6753TIP3   OH241817   4.458   5.784   8.509  0.4556  0.0578  0.2354
 6753TIP3    H141818   4.379   5.821   8.469  0.1372  0.3402  1.0972
 6753TIP3    H241819   4.529   5.807   8.449  0.0777  0.9795  0.1271
 6754TIP3   OH241820   6.257   4.470   7.013  0.1692 -0.2729 -0.4664
 6754TIP3    H141821   6.321   4.435   7.075 -2.0184 -0.6677  1.7683
 6754TIP3    H241822   6.260   4.565   7.026  0.9463 -0.2022 -1.0950
 6755TIP3   OH241823   0.121   5.095   1.258  0.1504  0.0145 -0.2332
 6755TIP3    H141824   0.094   5.158   1.326  0.5551  0.8462 -0.8217
 6755TIP3    H241825   0.186   5.040   1.301  0.4822  0.6023  0.0427
 6756TIP3   OH241826   6.477   2.690   7.557 -0.5547  0.2146  0.0596
 6756TIP3    H141827   6.407   2.721   7.615 -1.5360 -0.8994 -0.4910
 6756TIP3    H241828   6.523   2.624   7.608 -1.8730 -1.2907 -0.6449
 6757TIP3   OH241829   3.697   1.053   2.494 -0.8652  0.1279  0.1493
 6757TIP3    H141830   3.671   1.109   2.568 -0.9370 -0.2327  0.4017
 6757TIP3    H241831   3.615   1.037   2.447 -0.8073  0.4179 -0.0510
 6758TIP3   OH241832   3.442   4.106   1.452  0.5509  0.2222  0.1472
 6758TIP3    H141833   3.352   4.102   1.419  0.2909  3.0528  0.2742
 6758TIP3    H241834   3.434   4.149   1.537  1.7435 -2.4731  1.7337
 6759TIP3   OH241835   1.419   5.630   0.656 -0.2511 -0.8833  0.1075
 6759TIP3    H141836   1.452   5.712   0.619  3.1369 -1.6045  1.1330
 6759TIP3    H241837   1.421   5.568   0.584 -0.4493 -0.6559 -0.0961
 6760TIP3   OH241838   2.054   4.807   8.519  0.6856 -0.1782  0.6769
 6760TIP3    H141839   2.105   4.845   8.448  0.2135 -0.0019  0.4302
 6760TIP3    H241840   1.963   4.829   8.499  0.4519 -0.9866  0.8036
 6761TIP3   OH241841   5.724   0.627   1.835  0.4792  0.2836 -0.1445
 6761TIP3    H141842   5.741   0.719   1.816  0.0321  0.5164  0.5469
 6761TIP3    H241843   5.630   0.617   1.823  0.8489 -0.7272 -2.8307
 6762TIP3   OH241844   3.417   4.981   0.605 -0.7526  0.6200  0.6574
 6762TIP3    H141845   3.452   4.928   0.677  0.4812  0.4378 -0.0481
 6762TIP3    H241846   3.425   4.925   0.528 -0.3379  1.4654  0.0654
 6763TIP3   OH241847   0.928   5.382   1.696  0.1094 -0.2931 -0.0235
 6763TIP3    H141848   0.922   5.334   1.778  0.9830  0.1303  0.2960
 6763TIP3    H241849   0.905   5.472   1.718  0.7461 -0.0907 -0.1463
 6764TIP3   OH241850   2.038   5.050   0.668 -0.5470 -0.3709 -0.6281
 6764TIP3    H141851   2.106   5.099   0.622  1.9024  0.1151  3.0399
 6764TIP3    H241852   2.068   4.959   0.664  1.0944 -0.0461  1.8260
 6765TIP3   OH241853   4.141   1.513   0.738 -0.2075  0.0713 -0.3975
 6765TIP3    H141854   4.165   1.562   0.816  1.1153 -1.7275  0.3844
 6765TIP3    H241855   4.159   1.421   0.760 -1.3703 -0.6591 -2.2400
 6766TIP3   OH241856   0.937   2.179   0.021  0.0727 -0.0429  0.4097
 6766TIP3    H141857   0.991   2.132  -0.042 -0.4008  1.3903 -1.1098
 6766TIP3    H241858   0.988   2.257   0.043 -0.1728 -0.0753  1.1220
 6767TIP3   OH241859   2.844   6.021   7.366  0.2058  0.3848 -0.6293
 6767TIP3    H141860   2.848   6.065   7.281 -0.4023  1.4996 -0.1035
 6767TIP3    H241861   2.868   5.930   7.347 -0.0232  0.5845 -2.0053
 6768TIP3   OH241862   6.648   0.531   0.897 -0.0128  0.0414 -0.4113
 6768TIP3    H141863   6.645   0.603   0.959  0.7338  0.4713 -0.8528
 6768TIP3    H241864   6.674   0.572   0.814 -0.8140 -0.5466 -0.9625
 6769TIP3   OH241865   0.835   2.489   7.413 -0.4780 -0.9927 -0.3032
 6769TIP3    H141866   0.816   2.477   7.320 -0.9188 -1.8458 -0.1178
 6769TIP3    H241867   0.825   2.583   7.428 -0.9070 -0.9199 -1.0079
 6770TIP3   OH241868   2.247   1.103   0.021 -0.4115 -0.2438  0.2846
 6770TIP3    H141869   2.170   1.142   0.060 -1.3746 -0.8982 -0.8910
 6770TIP3    H241870   2.213   1.045  -0.047  1.0479 -1.5660  0.6096
 6771TIP3   OH241871   0.618   6.605   1.412 -0.2070  0.1332  0.0784
 6771TIP3    H141872   0.639   6.514   1.435  0.7585  0.0936 -0.8949
 6771TIP3    H241873   0.524   6.605   1.396  0.0145 -1.0651 -1.4351
 6772TIP3   OH241874   3.747   3.094   8.432  0.1301 -1.0318 -0.2177
 6772TIP3    H141875   3.677   3.072   8.370 -0.8055 -2.7372  1.3340
 6772TIP3    H241876   3.825   3.105   8.377 -0.7039 -2.2217 -1.7303
 6773TIP3   OH241877   2.028   3.229   0.152 -0.4217 -0.0111  0.3742
 6773TIP3    H141878   2.044   3.252   0.243 -1.6489 -0.0212  0.6161
 6773TIP3    H241879   1.952   3.282   0.127 -1.2072 -1.3134 -0.0847
 6774TIP3   OH241880   3.286   1.632   2.013 -0.5507 -0.2349 -0.0302
 6774TIP3    H141881   3.366   1.592   2.048  0.5000  0.2816 -1.6920
 6774TIP3    H241882   3.259   1.694   2.081 -1.3372 -2.5707  1.9109
 6775TIP3   OH241883   3.934   1.696   0.683 -0.9521 -0.4429 -0.1336
 6775TIP3    H141884   4.018   1.727   0.714 -2.4007  1.7167  2.0088
 6775TIP3    H241885   3.937   1.601   0.694  0.6021 -0.2348  1.4988
 6776TIP3   OH241886   6.304   2.131   7.863  0.1301 -0.3030 -0.2682
 6776TIP3    H141887   6.282   2.059   7.805 -0.2814  0.8639 -1.6263
 6776TIP3    H241888   6.232   2.136   7.925 -0.3782 -0.3686 -0.8522
 6777TIP3   OH241889   0.225   0.369   0.463 -0.0444  0.3302  0.7027
 6777TIP3    H141890   0.235   0.444   0.521  2.0861  0.7502 -0.1159
 6777TIP3    H241891   0.310   0.325   0.466 -0.7556 -1.1897 -0.0283
 6778TIP3   OH241892   0.143   2.507   8.114  0.0416 -0.0387 -0.6379
 6778TIP3    H141893   0.228   2.524   8.073 -0.2935 -0.5195 -1.5734
 6778TIP3    H241894   0.083   2.569   8.073 -0.0710  0.2960  0.0144
 6779TIP3   OH241895   2.816   0.089   0.270 -0.0982 -0.1292 -0.0437
 6779TIP3    H141896   2.879   0.161   0.268 -0.8572  0.5588  0.3190
 6779TIP3    H241897   2.803   0.067   0.178 -0.3410  0.6376 -0.2056
 6780TIP3   OH241898   0.481   3.317   0.975 -0.0166  0.0003 -0.1552
 6780TIP3    H141899   0.522   3.400   0.955 -2.5263  0.7732 -2.7553
 6780TIP3    H241900   0.551   3.252   0.965  1.2522  1.4885 -1.4285
 6781TIP3   OH241901   4.411   0.932   0.661 -0.3414 -0.2217 -0.4444
 6781TIP3    H141902   4.335   0.990   0.662  0.2093  0.5989  2.1157
 6781TIP3    H241903   4.392   0.867   0.729  0.0719 -1.6983 -1.6912
 6782TIP3   OH241904   2.978   6.916   7.788 -0.2923 -0.2353 -0.1610
 6782TIP3    H141905   2.910   6.860   7.826  0.1362 -0.4904  0.2366
 6782TIP3    H241906   2.960   7.003   7.824 -0.3237 -0.3306  0.0545
 6783TIP3   OH241907   2.437   6.892   1.180 -0.3122  0.2520 -0.0044
 6783TIP3    H141908   2.360   6.926   1.225 -0.8716 -0.4317 -0.4207
 6783TIP3    H241909   2.427   6.922   1.090  0.7247  1.4872  0.2545
 6784TIP3   OH241910   1.222   4.958   8.505 -0.3304 -0.4221 -0.2458
 6784TIP3    H141911   1.267   5.041   8.488 -0.6670 -0.2659 -0.3681
 6784TIP3    H241912   1.145   4.960   8.448 -1.9314  0.4645  1.8371
 6785TIP3   OH241913   4.715   5.504   0.227  0.2332  0.0228 -0.0782
 6785TIP3    H141914   4.803   5.473   0.208 -0.3335 -1.8228  0.0856
 6785TIP3    H241915   4.679   5.530   0.142  0.8962  0.7289 -0.1498
 6786TIP3   OH241916   0.065   2.213   7.110  0.6614  0.2644 -0.3410
 6786TIP3    H141917   0.147   2.255   7.135  1.1314 -1.6165  1.5500
 6786TIP3    H241918  -0.000   2.250   7.169  0.4999  0.4309 -0.6197
 6787TIP3   OH241919   3.223   6.371   2.052  0.4335  0.2176 -0.6598
 6787TIP3    H141920   3.225   6.275   2.045  0.8425 -0.0390  2.0336
 6787TIP3    H241921   3.229   6.388   2.146  0.6412  2.9164 -1.0988
 6788TIP3   OH241922   3.407   6.747   0.995 -0.1117 -0.0020 -0.0143
 6788TIP3    H141923   3.336   6.808   1.016 -0.4974 -0.4420 -0.0282
 6788TIP3    H241924   3.368   6.687   0.931  0.5791  0.3706 -0.8027
 6789TIP3   OH241925   5.014   3.477   0.388 -0.2807 -0.6405 -0.4368
 6789TIP3    H141926   4.967   3.500   0.308 -0.4282 -2.0582 -0.7874
 6789TIP3    H241927   4.969   3.524   0.457 -2.3197 -2.0241 -0.7456
 6790TIP3   OH241928   5.576   6.472   0.132 -0.1076  0.0289  0.1792
 6790TIP3    H141929   5.617   6.486   0.047  0.7081  0.2348  0.5892
 6790TIP3    H241930   5.645   6.434   0.186 -0.1672  1.2423  1.1554
 6791TIP3   OH241931   0.777   6.210   1.850  0.3811 -0.1394  0.4458
 6791TIP3    H141932   0.703   6.242   1.902 -0.1278 -2.1230  1.0091
 6791TIP3    H241933   0.834   6.166   1.913  0.6524 -1.0188 -0.3837
 6792TIP3   OH241934   1.297   1.758   0.491 -0.8644 -0.1502 -0.0079
 6792TIP3    H141935   1.290   1.780   0.584  2.3542 -0.8351  0.5381
 6792TIP3    H241936   1.308   1.663   0.490 -0.5909 -0.1220 -1.0652
 6793TIP3   OH241937   2.976   3.714   2.810  0.1675  0.7454  0.5549
 6793TIP3    H141938   3.049   3.682   2.757  0.2287  0.5372  0.7656
 6793TIP3    H241939   2.923   3.637   2.827 -0.1747  0.9195  0.2925
 6794TIP3   OH241940   1.685   6.553   2.493  0.5975 -0.3447 -0.0628
 6794TIP3    H141941   1.688   6.503   2.574 -0.7521  1.5453  1.2430
 6794TIP3    H241942   1.630   6.501   2.434  0.8257 -1.2920  0.5371
 6795TIP3   OH241943   5.354   1.198   7.046  0.1221  0.2215 -0.0643
 6795TIP3    H141944   5.375   1.279   6.998  1.3685  0.8636  1.4767
 6795TIP3    H241945   5.276   1.220   7.096 -0.2426  0.0623 -0.5502
 6796TIP3   OH241946   0.820   2.337   2.919  0.2803  0.2562  0.5274
 6796TIP3    H141947   0.883   2.287   2.867  0.0939  2.2544 -1.8073
 6796TIP3    H241948   0.868   2.358   3.000  1.6320 -0.5630 -0.0157
 6797TIP3   OH241949   1.068   5.183   0.618  0.5307 -0.3656  0.0717
 6797TIP3    H141950   1.101   5.149   0.535  1.0855  0.7628 -0.1910
 6797TIP3    H241951   0.997   5.123   0.642 -0.1000 -0.3355 -1.5603
 6798TIP3   OH241952   4.913   2.566   7.838  0.2483 -0.1049 -0.1917
 6798TIP3    H141953   5.000   2.527   7.844 -0.0555 -0.6292  1.2397
 6798TIP3    H241954   4.866   2.531   7.914 -1.2479  0.0862 -0.9958
 6799TIP3   OH241955   0.123   1.436   3.048 -0.1262  0.3988 -0.0799
 6799TIP3    H141956   0.154   1.383   3.122  0.4589 -0.9708 -1.2550
 6799TIP3    H241957   0.126   1.377   2.973  1.0682  2.2507 -1.5810
 6800TIP3   OH241958   0.526   6.189   2.588  0.0956 -0.5315 -0.2508
 6800TIP3    H141959   0.468   6.115   2.608  1.4654 -1.1791  1.6149
 6800TIP3    H241960   0.600   6.150   2.542  0.9335 -0.3962  0.9390
 6801TIP3   OH241961   0.721   4.124   1.026 -0.3645 -0.1056 -0.2540
 6801TIP3    H141962   0.714   4.183   0.951  0.6605 -0.4292 -0.6322
 6801TIP3    H241963   0.675   4.168   1.096  1.7850  1.9916 -0.0269
 6802TIP3   OH241964   6.456   6.723   1.833 -0.5829  0.0947  0.1579
 6802TIP3    H141965   6.386   6.738   1.897 -0.1253 -1.6501  1.1413
 6802TIP3    H241966   6.522   6.789   1.855 -1.4372  1.0576 -0.0841
 6803TIP3   OH241967   0.880   0.725   7.172 -0.1503 -0.3627  0.4589
 6803TIP3    H141968   0.789   0.715   7.142  0.2985  1.2603 -1.6418
 6803TIP3    H241969   0.872   0.766   7.258 -1.3980 -0.6637  0.5156
 6804TIP3   OH241970   0.269   6.470   7.097  0.1393 -0.2580  0.1479
 6804TIP3    H141971   0.349   6.514   7.123  0.1767  0.0685 -0.5034
 6804TIP3    H241972   0.249   6.505   7.010 -0.0069 -1.2782 -0.2421
 6805TIP3   OH241973   1.084   1.086   3.035  0.2941 -0.0872 -0.0374
 6805TIP3    H141974   1.008   1.131   2.999  0.3194  1.2135  1.4532
 6805TIP3    H241975   1.050   1.036   3.109  0.5959 -1.0024 -0.5015
 6806TIP3   OH241976   6.114   2.150   0.395 -0.2084 -0.2206  0.1073
 6806TIP3    H141977   6.133   2.230   0.443  1.8989 -0.4827 -0.1590
 6806TIP3    H241978   6.019   2.144   0.392 -0.3985  0.9566  2.2815
 6807TIP3   OH241979   1.996   1.001   0.275 -1.2125  0.3851 -0.1032
 6807TIP3    H141980   2.051   0.922   0.269  0.9209  1.7487  0.3582
 6807TIP3    H241981   1.998   1.038   0.187 -0.9081  0.7265  0.0436
 6808TIP3   OH241982   6.887   1.749   6.740  0.1576  0.2273 -0.4744
 6808TIP3    H141983   6.826   1.751   6.813 -0.3943  1.2518 -0.9469
 6808TIP3    H241984   6.939   1.828   6.749  1.2999 -0.5436 -0.1867
 6809TIP3   OH241985   6.868   4.586   7.648 -0.3287 -0.4835  0.0371
 6809TIP3    H141986   6.941   4.589   7.710 -0.3601 -2.2479  0.2083
 6809TIP3    H241987   6.800   4.538   7.695 -0.3403 -1.8945 -1.3580
 6810TIP3   OH241988   6.115   1.505   0.276 -0.0009 -0.1299  0.3124
 6810TIP3    H141989   6.043   1.443   0.293  0.0232 -0.3019 -0.2108
 6810TIP3    H241990   6.194   1.457   0.300  0.0043 -0.2434  0.0698
 6811TIP3   OH241991   1.545   6.074   0.985 -0.2247 -0.2177  0.1654
 6811TIP3    H141992   1.494   6.118   0.918 -0.9829  0.9806  1.4785
 6811TIP3    H241993   1.606   6.141   1.017 -0.2063 -0.6183  1.0037
 6812TIP3   OH241994   0.013   5.993   7.509 -0.4300 -0.5993 -0.5639
 6812TIP3    H141995   0.083   6.056   7.529  0.0676 -0.9333 -1.2049
 6812TIP3    H241996  -0.059   6.018   7.566  0.0025  0.1355 -0.3279
 6813TIP3   OH241997   0.999   4.832   0.536 -0.5955  0.5308  0.0461
 6813TIP3    H141998   1.000   4.782   0.455 -0.6502  1.7976 -0.7708
 6813TIP3    H241999   1.079   4.807   0.582 -0.6427 -0.3102 -0.3229
 6814TIP3   OH242000   4.526   6.272   1.388 -0.1407 -0.4350  0.0844
 6814TIP3    H142001   4.498   6.188   1.354 -0.7852 -0.7952  1.4224
 6814TIP3    H242002   4.466   6.336   1.349 -1.9429 -1.0215  1.7371
 6815TIP3   OH242003   6.806   6.399   2.140 -0.2128 -0.5589 -0.0684
 6815TIP3    H142004   6.722   6.363   2.167 -0.8431  1.3418  0.6578
 6815TIP3    H242005   6.856   6.407   2.221  1.6776 -3.9137 -0.7516
 6816TIP3   OH242006   0.700   1.586   0.727  1.0254 -0.0390 -0.3985
 6816TIP3    H142007   0.634   1.585   0.797 -0.6184  1.1912 -1.8268
 6816TIP3    H242008   0.714   1.680   0.710  0.4094 -0.2832 -2.5361
 6817TIP3   OH242009   1.403   4.444   7.258 -0.3177  0.0575 -0.2100
 6817TIP3    H142010   1.378   4.426   7.349 -2.0235  0.1098 -0.6366
 6817TIP3    H242011   1.356   4.525   7.236 -0.0523 -0.0434 -1.1873
 6818TIP3   OH242012   2.848   4.918   8.278 -0.1199  0.2847  0.5489
 6818TIP3    H142013   2.942   4.910   8.266 -0.1134 -1.2791  1.4539
 6818TIP3    H242014   2.836   4.920   8.373 -1.0101  0.3502  0.4441
 6819TIP3   OH242015   2.015   1.142   1.512 -0.0748  0.1777  0.5588
 6819TIP3    H142016   2.044   1.104   1.429  1.2311  0.2618  0.9561
 6819TIP3    H242017   1.982   1.228   1.489 -0.5513 -0.1449  0.0082
 6820TIP3   OH242018   6.718   1.839   7.413  0.1185 -0.0049 -0.0251
 6820TIP3    H142019   6.747   1.813   7.500  0.3795  0.3422 -0.0031
 6820TIP3    H242020   6.638   1.789   7.398  0.6404 -0.8615 -0.0209
 6821TIP3   OH242021   5.145   6.611   6.563  0.6324 -0.2104 -0.7498
 6821TIP3    H142022   5.100   6.695   6.559  1.0226 -0.0529 -2.5127
 6821TIP3    H242023   5.076   6.546   6.556  0.5718  0.0229 -2.8888
 6822TIP3   OH242024   0.848   6.698   2.308  0.5284  0.2605 -0.3701
 6822TIP3    H142025   0.896   6.754   2.369 -1.1797  0.5151  0.8064
 6822TIP3    H242026   0.896   6.707   2.226  2.9936 -0.2176  0.9149
 6823TIP3   OH242027   1.708   6.737   0.340  0.2987  0.2062  0.0511
 6823TIP3    H142028   1.794   6.702   0.363 -0.0069 -0.4122  0.2869
 6823TIP3    H242029   1.665   6.751   0.424  0.6561  1.8094 -0.0088
 6824TIP3   OH242030   3.386   1.620   0.476 -0.0983  0.6163 -0.0675
 6824TIP3    H142031   3.320   1.555   0.450  2.1571 -0.8358 -2.9051
 6824TIP3    H242032   3.337   1.689   0.519 -3.0294 -1.6955  0.6442
 6825TIP3   OH242033   0.714   4.310   7.196  0.3882  0.0287  0.3257
 6825TIP3    H142034   0.660   4.383   7.166 -0.4900 -0.8938 -0.4093
 6825TIP3    H242035   0.669   4.232   7.164  1.6798 -0.8154  0.4954
 6826TIP3   OH242036   6.406   0.000   0.382  0.4046 -0.1782 -0.7532
 6826TIP3    H142037   6.344  -0.029   0.315 -2.5748 -0.5096  1.8537
 6826TIP3    H242038   6.408   0.095   0.373 -0.0133 -0.2132 -1.2926
 6827TIP3   OH242039   1.074   5.475   7.193  0.0943 -0.2929 -0.6419
 6827TIP3    H142040   1.004   5.483   7.258  0.0672  1.5057 -0.8383
 6827TIP3    H242041   1.109   5.387   7.205 -0.5328 -0.3219  1.1604
 6828TIP3   OH242042   2.021   3.494   7.759  0.1627  0.4354 -0.7529
 6828TIP3    H142043   2.103   3.542   7.769  0.6965 -0.5451 -0.2368
 6828TIP3    H242044   1.973   3.509   7.840  1.2428 -1.5114  0.3424
 6829TIP3   OH242045   2.770   6.481   7.215  0.7389  0.0093  0.4768
 6829TIP3    H142046   2.822   6.449   7.289  1.0257  0.4133  0.4561
 6829TIP3    H242047   2.709   6.410   7.196  0.0498  0.2466  1.6914
 6830TIP3   OH242048   2.580   0.946   0.924 -0.4324  0.0377 -0.4268
 6830TIP3    H142049   2.615   0.954   0.835  2.8177 -0.1683  0.7055
 6830TIP3    H242050   2.618   1.020   0.971 -0.3735 -1.0121  1.2622
 6831TIP3   OH242051   5.808   1.291   7.424 -0.3305  0.7005 -0.2678
 6831TIP3    H142052   5.784   1.204   7.391  3.6793  0.9326 -4.7976
 6831TIP3    H242053   5.888   1.277   7.474  0.0252  1.7056 -0.5314
 6832TIP3   OH242054   4.064   4.720   1.205  0.4937 -0.3382 -0.1582
 6832TIP3    H142055   4.077   4.631   1.172 -1.4691  0.1074 -2.4303
 6832TIP3    H242056   4.020   4.708   1.289  2.6557 -1.4801  0.8959
 6833TIP3   OH242057   5.000   1.478   0.683  0.2665  0.1157 -0.6837
 6833TIP3    H142058   5.014   1.403   0.740 -0.2041  0.5122 -0.0233
 6833TIP3    H242059   4.989   1.441   0.596 -0.4053 -0.6221 -0.2975
 6834TIP3   OH242060   1.560   1.630   7.473 -0.4471  0.3919 -0.0034
 6834TIP3    H142061   1.513   1.556   7.435  1.5955 -0.5194 -0.9002
 6834TIP3    H242062   1.611   1.666   7.400 -0.6259  2.0662  0.6610
 6835TIP3   OH242063   3.037   1.307   1.445  0.5679  0.1028 -0.2066
 6835TIP3    H142064   3.111   1.259   1.409  0.2369 -2.1449  1.8660
 6835TIP3    H242065   3.076   1.365   1.512  0.6848  0.8394 -0.8957
 6836TIP3   OH242066   0.314   2.338   7.267  0.6086 -0.5006  0.4490
 6836TIP3    H142067   0.258   2.346   7.345  1.0862 -1.1088  0.8543
 6836TIP3    H242068   0.373   2.413   7.273  0.1977 -0.1579  0.3026
 6837TIP3   OH242069   1.185   0.064   2.000  0.4833  0.6661 -0.3977
 6837TIP3    H142070   1.247   0.027   1.937  1.7710  1.9733  0.0355
 6837TIP3    H242071   1.201   0.158   1.996 -1.3419  1.0255 -0.0864
 6838TIP3   OH242072   3.897   3.045   1.848  0.2793 -0.1521  0.4509
 6838TIP3    H142073   3.917   2.995   1.927 -3.0390 -2.2845  0.1349
 6838TIP3    H242074   3.909   2.983   1.776 -2.1048 -0.0322 -0.1297
 6839TIP3   OH242075   6.076   2.560   0.875  0.6318 -0.3985  0.3142
 6839TIP3    H142076   6.139   2.492   0.900  1.3986  0.4493  0.7626
 6839TIP3    H242077   6.097   2.634   0.931  0.8806  0.7698 -1.2394
 6840TIP3   OH242078   0.675   2.878   0.960  0.1946 -0.0309 -0.0263
 6840TIP3    H142079   0.704   2.871   1.051  0.2214 -1.1660 -0.1061
 6840TIP3    H242080   0.581   2.861   0.963  0.2024 -0.1111 -0.2092
 6841TIP3   OH242081   5.711   5.404   7.948  0.4054 -0.0361  0.6438
 6841TIP3    H142082   5.631   5.443   7.984 -0.4568 -1.0025 -0.1787
 6841TIP3    H242083   5.721   5.321   7.995 -0.5920 -1.1910 -1.1029
 6842TIP3   OH242084   5.953   0.068   0.231  0.5795  0.0268  0.0526
 6842TIP3    H142085   6.039   0.025   0.226 -0.1580 -1.4752 -0.1259
 6842TIP3    H242086   5.908   0.024   0.303 -0.4180  0.0903 -0.5153
 6843TIP3   OH242087   3.596   3.128   7.784  0.2921 -0.1961 -0.5786
 6843TIP3    H142088   3.659   3.072   7.738  1.9001  0.7915  0.3359
 6843TIP3    H242089   3.609   3.108   7.876 -0.0767  0.7020 -0.3230
 6844TIP3   OH242090   6.179   1.383   7.398  0.1373 -0.4128  0.1389
 6844TIP3    H142091   6.145   1.360   7.311  0.4981 -2.0358  0.4050
 6844TIP3    H242092   6.161   1.477   7.406  0.4285 -0.1407 -1.8392
 6845TIP3   OH242093   6.314   4.936   1.135  0.0573  0.1373 -0.2236
 6845TIP3    H142094   6.225   4.973   1.132  1.0016  2.5888 -0.4317
 6845TIP3    H242095   6.336   4.934   1.228 -0.5160 -1.3413 -0.0993
 6846TIP3   OH242096   1.928   6.001   6.951  0.1367  0.1691 -0.0433
 6846TIP3    H142097   1.837   5.990   6.979 -0.1978 -0.4916 -1.2915
 6846TIP3    H242098   1.966   5.913   6.958  0.3433  0.2064 -0.5785
 6847TIP3   OH242099   1.842   6.176   1.522 -0.5323  0.1584 -0.7219
 6847TIP3    H142100   1.836   6.095   1.571 -1.7465  0.8174  0.2921
 6847TIP3    H242101   1.819   6.244   1.585 -3.2751  0.9606 -2.4133
 6848TIP3   OH242102   1.856   4.433   1.584 -0.2237  0.0759 -0.2627
 6848TIP3    H142103   1.809   4.458   1.504 -0.7851 -1.8434 -0.5937
 6848TIP3    H242104   1.788   4.428   1.651 -0.0611 -0.1257 -0.1131
 6849TIP3   OH242105   0.145   1.684   0.668  0.2143  0.2346  0.4222
 6849TIP3    H142106   0.062   1.697   0.622  1.0804 -0.4382 -1.4591
 6849TIP3    H242107   0.168   1.593   0.651  2.3894  0.9659 -1.0654
 6850TIP3   OH242108   4.798   3.457   0.805  0.2931 -0.0434 -0.2563
 6850TIP3    H142109   4.828   3.413   0.884  0.2491  1.6741  0.7684
 6850TIP3    H242110   4.704   3.471   0.819  0.0528 -0.6942 -1.1187
 6851TIP3   OH242111   5.201   4.366   0.247 -0.4391 -0.0601 -0.3792
 6851TIP3    H142112   5.246   4.292   0.286 -2.5223 -1.2188  0.0059
 6851TIP3    H242113   5.189   4.342   0.155 -1.1774 -0.2511 -0.2402
 6852TIP3   OH242114   6.001   4.784   2.367 -0.4094  0.0239 -0.0098
 6852TIP3    H142115   6.059   4.782   2.290  0.2203 -0.0311  0.4606
 6852TIP3    H242116   6.009   4.697   2.405  0.2372  0.4208  0.8061
 6853TIP3   OH242117   5.041   5.471   8.368 -0.2049 -0.7769 -0.0982
 6853TIP3    H142118   5.076   5.463   8.279 -0.5325 -1.0112 -0.2058
 6853TIP3    H242119   4.960   5.420   8.367 -1.3282  0.9132 -0.2697
 6854TIP3   OH242120   0.533   3.828   0.252  0.3666 -0.0832 -0.1708
 6854TIP3    H142121   0.486   3.907   0.225  0.7264  0.3850  0.5473
 6854TIP3    H242122   0.624   3.854   0.258  0.7153 -0.9304 -1.3028
 6855TIP3   OH242123   0.395   4.070   0.681 -0.0296 -0.7679 -0.0834
 6855TIP3    H142124   0.378   4.027   0.765 -1.4812 -1.5160 -0.7203
 6855TIP3    H242125   0.350   4.015   0.616  0.6188  0.0769 -1.2954
 6856TIP3   OH242126   4.593   0.510   1.218  0.2358  0.3039 -0.0374
 6856TIP3    H142127   4.588   0.556   1.302  1.5831  0.5374 -0.0650
 6856TIP3    H242128   4.686   0.510   1.196  0.0520 -0.8459 -0.9297
 6857TIP3   OH242129   0.255   5.898   7.367 -0.0954  0.1738 -0.2835
 6857TIP3    H142130   0.172   5.903   7.415 -0.3496 -0.5894 -0.6341
 6857TIP3    H242131   0.233   5.929   7.278  0.1293  0.5195 -0.2222
 6858TIP3   OH242132   5.481   5.266   0.990 -0.8840  0.6564 -0.1735
 6858TIP3    H142133   5.563   5.270   0.942 -0.2486 -0.1555  0.8004
 6858TIP3    H242134   5.413   5.267   0.922 -0.0068 -1.0060 -1.1217
 6859TIP3   OH242135   0.484   6.384   7.520 -0.1946 -0.1890 -0.0270
 6859TIP3    H142136   0.531   6.361   7.600  0.6601  2.5337  0.3687
 6859TIP3    H242137   0.426   6.455   7.545 -0.6189  0.0844 -1.6381
 6860TIP3   OH242138   4.772   4.511   1.817 -0.3319 -0.1953  0.2244
 6860TIP3    H142139   4.754   4.431   1.768 -0.1054 -0.2485  0.2270
 6860TIP3    H242140   4.699   4.570   1.795 -0.5166 -0.4115  0.2495
 6861TIP3   OH242141   1.269   5.507   1.665  0.0880 -0.2316  0.1207
 6861TIP3    H142142   1.314   5.432   1.627  0.4892  0.4276 -0.7454
 6861TIP3    H242143   1.231   5.553   1.590 -0.7913  0.0287  0.7064
 6862TIP3   OH242144   5.101   5.825   0.821 -0.4193 -0.1002  0.4186
 6862TIP3    H142145   5.130   5.736   0.840  2.2745  0.5849  0.0159
 6862TIP3    H242146   5.162   5.856   0.754 -1.5069  1.9282  0.2786
 6863TIP3   OH242147   1.761   2.365   6.950 -0.3884 -0.3071 -0.3498
 6863TIP3    H142148   1.675   2.324   6.959 -1.3836  1.6165 -0.5078
 6863TIP3    H242149   1.743   2.448   6.906  1.3710  0.7511  0.8156
 6864TIP3   OH242150   6.618   4.826   1.127  0.2651 -0.0540  0.1717
 6864TIP3    H142151   6.638   4.818   1.220  0.4928  2.6995  0.4371
 6864TIP3    H242152   6.537   4.876   1.124  1.4435  1.9258 -1.0876
 6865TIP3   OH242153   0.567   6.324   2.031 -0.0757 -0.2295  0.4864
 6865TIP3    H142154   0.609   6.290   2.110 -1.2473 -0.2261  1.1202
 6865TIP3    H242155   0.547   6.415   2.051  0.9037  0.1969 -0.3516
 6866TIP3   OH242156   4.907   4.477   6.733 -0.0387 -0.2265  0.3659
 6866TIP3    H142157   4.825   4.505   6.775 -0.7214 -0.9349 -0.4364
 6866TIP3    H242158   4.967   4.460   6.806 -0.5865  0.3717  0.9676
 6867TIP3   OH242159   3.960   6.700   6.673  0.6503  0.1457  0.7582
 6867TIP3    H142160   3.911   6.751   6.608 -0.5372 -0.9875  0.7358
 6867TIP3    H242161   4.033   6.663   6.624  1.6564  1.9436  0.8168
 6868TIP3   OH242162   5.160   2.238   7.695 -0.5098  0.3990  0.2969
 6868TIP3    H142163   5.152   2.253   7.601  0.6738  1.9709  0.4028
 6868TIP3    H242164   5.070   2.226   7.726 -1.2724  3.0455 -0.5901
 6869TIP3   OH242165   4.339   3.339   1.171  0.1434  0.4079 -0.3359
 6869TIP3    H142166   4.310   3.351   1.081  0.2146 -0.5481 -0.5029
 6869TIP3    H242167   4.311   3.250   1.193  0.1702  0.6155  0.5676
 6870TIP3   OH242168   6.132   6.633   2.815 -0.0231 -0.0551  0.2485
 6870TIP3    H142169   6.173   6.581   2.746  0.6743  1.4025 -0.4944
 6870TIP3    H242170   6.143   6.581   2.894  0.9436 -0.8787 -0.3977
 6871TIP3   OH242171   6.361   1.489   7.209 -0.1035  0.0000 -0.6602
 6871TIP3    H142172   6.362   1.576   7.250 -0.8670 -0.1446 -0.3206
 6871TIP3    H242173   6.401   1.431   7.275 -1.1912 -0.2051 -0.1503
 6872TIP3   OH242174   5.398   0.643   6.440  0.2251 -0.9271  0.6258
 6872TIP3    H142175   5.412   0.733   6.471 -1.2103 -0.1938 -0.7235
 6872TIP3    H242176   5.320   0.614   6.487  0.0165 -1.0530  0.1958
 6873TIP3   OH242177   4.241   1.949   0.161  0.0449  0.2742  0.3052
 6873TIP3    H142178   4.250   2.022   0.222 -1.8488  0.2197  0.7040
 6873TIP3    H242179   4.156   1.963   0.120 -0.2113 -1.5382  0.1502
 6874TIP3   OH242180   0.917   3.158   0.673 -0.4874 -0.4938  0.6044
 6874TIP3    H142181   0.845   3.111   0.630 -1.5782  0.5457  1.2593
 6874TIP3    H242182   0.882   3.184   0.758 -0.1203  1.9726  0.0767
 6875TIP3   OH242183   1.080   5.295   2.577  0.3043  0.2137  0.9708
 6875TIP3    H142184   1.141   5.369   2.582  1.4748 -0.7581  1.4951
 6875TIP3    H242185   0.995   5.334   2.596  0.8577  1.4728  1.0017
 6876TIP3   OH242186   4.459   1.338   0.478  0.8036 -0.1494 -0.4760
 6876TIP3    H142187   4.530   1.318   0.538  0.9654  0.6575 -0.3843
 6876TIP3    H242188   4.463   1.268   0.412  1.5316 -0.2453 -0.3405
 6877TIP3   OH242189   5.887   1.909   0.208  0.2987  0.1225 -0.3520
 6877TIP3    H142190   5.960   1.857   0.242  1.9044  2.0598 -0.6546
 6877TIP3    H242191   5.903   1.997   0.242 -1.5555  0.7511 -0.9909
 6878TIP3   OH242192   5.939   2.254   2.015 -0.5749  0.5678 -0.4019
 6878TIP3    H142193   6.008   2.319   2.005 -1.4750  1.2317 -3.3033
 6878TIP3    H242194   5.864   2.303   2.050  0.1180 -0.0037  2.0519
 6879TIP3   OH242195   0.838   1.388   0.284 -0.3323  0.2884  0.0943
 6879TIP3    H142196   0.909   1.384   0.220 -0.4793  1.3492 -0.1504
 6879TIP3    H242197   0.758   1.392   0.231 -0.7152 -2.2055  0.3522
 6880TIP3   OH242198   0.723   0.386   0.877 -0.0836  0.3488  0.4399
 6880TIP3    H142199   0.746   0.436   0.799 -0.7495 -0.6619 -0.4395
 6880TIP3    H242200   0.658   0.441   0.922 -0.3569  0.5548 -0.1908
 6881TIP3   OH242201   6.151   1.855   1.330  0.3408  0.0122  0.0753
 6881TIP3    H142202   6.085   1.802   1.375  1.7440 -1.7039  0.2361
 6881TIP3    H242203   6.179   1.919   1.396  1.1139 -1.3424  1.1179
 6882TIP3   OH242204   2.363   5.043   1.183 -0.4409  0.6188  0.3589
 6882TIP3    H142205   2.318   4.972   1.137  0.5159 -0.5593  1.1762
 6882TIP3    H242206   2.456   5.022   1.174 -0.0796  2.2918 -0.1665
 6883TIP3   OH242207   6.670   5.969   0.930 -0.8034  0.1766 -0.2328
 6883TIP3    H142208   6.626   6.012   0.857  0.2614  1.2899 -0.2660
 6883TIP3    H242209   6.600   5.947   0.991 -1.6889 -0.6134 -1.4940
 6884TIP3   OH242210   1.109   5.697   2.570 -0.0721  0.3529 -0.4789
 6884TIP3    H142211   1.172   5.627   2.587  0.9818  2.0672  4.8440
 6884TIP3    H242212   1.154   5.756   2.510  1.4192 -0.7836 -0.5360
 6885TIP3   OH242213   3.590   2.205   0.054  0.2730  0.2142 -0.3241
 6885TIP3    H142214   3.678   2.237   0.071  1.0150 -1.3230 -1.0468
 6885TIP3    H242215   3.564   2.160   0.134  0.9766 -1.0625 -0.7939
 6886TIP3   OH242216   3.270   6.113   0.935 -0.3628  0.3467  0.3680
 6886TIP3    H142217   3.287   6.203   0.910  0.6645  0.3723  1.1211
 6886TIP3    H242218   3.318   6.060   0.871 -2.2356  0.2507 -1.0551
 6887TIP3   OH242219   4.157   4.426   0.723 -0.0048 -0.1281  0.2717
 6887TIP3    H142220   4.150   4.521   0.709  2.7135  0.0358 -0.7568
 6887TIP3    H242221   4.106   4.388   0.652 -0.4320  0.5864  0.1844
 6888TIP3   OH242222   4.893   6.319   7.877  0.0792 -0.5161  0.1918
 6888TIP3    H142223   4.906   6.401   7.925  2.5931 -0.5844 -0.2454
 6888TIP3    H242224   4.889   6.346   7.785 -0.4781 -0.7700  0.1388
 6889TIP3   OH242225   2.750   3.617   2.360 -0.0125 -0.0220  0.0421
 6889TIP3    H142226   2.760   3.684   2.427 -0.9266 -0.1249  0.2893
 6889TIP3    H242227   2.779   3.536   2.401 -0.0311  0.0140  0.1249
 6890TIP3   OH242228   0.543   5.470   2.101 -0.4289  0.0392  0.0438
 6890TIP3    H142229   0.509   5.481   2.012 -1.4083  0.2241  0.4289
 6890TIP3    H242230   0.467   5.445   2.153  0.3931 -1.5122  0.5723
 6891TIP3   OH242231   5.808   1.530   8.093  0.8336  0.9880 -0.1959
 6891TIP3    H142232   5.824   1.484   8.175  1.1073 -1.3188 -1.4776
 6891TIP3    H242233   5.893   1.567   8.069  0.9268  1.0141  0.1751
 6892TIP3   OH242234   0.429   6.740   8.310 -0.0285 -0.1277 -0.6627
 6892TIP3    H142235   0.349   6.723   8.360  0.7345 -0.4154  0.4947
 6892TIP3    H242236   0.402   6.803   8.244 -1.1355  0.0632 -0.0620
 6893TIP3   OH242237   4.777   0.286   1.354  0.2476 -0.0557 -0.2135
 6893TIP3    H142238   4.815   0.362   1.309 -0.6486 -0.1795 -1.2230
 6893TIP3    H242239   4.769   0.314   1.446  1.5383  0.4279 -0.2387
 6894TIP3   OH242240   1.083   4.233   8.487 -0.2070  0.4786 -0.1469
 6894TIP3    H142241   1.084   4.221   8.392  0.3208  0.9663 -0.2054
 6894TIP3    H242242   1.157   4.291   8.505 -1.0258  1.3728  0.4276
 6895TIP3   OH242243   1.522   6.547   1.551  0.2453  0.4784  0.1229
 6895TIP3    H142244   1.434   6.576   1.572  0.5863  1.0650  0.7723
 6895TIP3    H242245   1.558   6.616   1.495  0.4992  0.5243  0.3416
 6896TIP3   OH242246   3.519   1.044   1.158 -0.3947 -0.3676  0.6484
 6896TIP3    H142247   3.451   0.978   1.143 -1.2043  0.3882  0.8543
 6896TIP3    H242248   3.589   1.021   1.098 -1.4732 -0.3007 -0.6848
 6897TIP3   OH242249   4.707   6.104   7.952  0.0878  0.1655 -0.7719
 6897TIP3    H142250   4.729   6.190   7.916 -1.0039  0.4291 -0.8437
 6897TIP3    H242251   4.791   6.067   7.978  0.8349  0.2980 -2.8413
 6898TIP3   OH242252   5.628   4.519   1.825 -0.1980 -0.0329  0.4621
 6898TIP3    H142253   5.583   4.514   1.909  0.1736  0.9441  0.7385
 6898TIP3    H242254   5.682   4.598   1.832 -1.8367  1.3712 -1.5070
 6899TIP3   OH242255   1.477   6.417   1.287 -0.3296 -0.1129 -0.6717
 6899TIP3    H142256   1.500   6.422   1.379  0.0456  0.1242 -0.7750
 6899TIP3    H242257   1.541   6.473   1.243  0.6792 -1.6659 -1.2902
 6900TIP3   OH242258   6.916   6.061   0.985  0.1072 -0.3495  0.1057
 6900TIP3    H142259   6.846   5.998   0.969 -1.0560  1.2926 -1.6648
 6900TIP3    H242260   6.882   6.116   1.056 -0.1400  0.0682 -0.3339
 6901TIP3   OH242261   5.446   5.286   1.260  0.0278  0.0181 -0.0562
 6901TIP3    H142262   5.463   5.304   1.168  1.7275  0.4417  0.3007
 6901TIP3    H242263   5.432   5.192   1.265 -1.8386  0.2200 -0.9707
 6902TIP3   OH242264   4.548   6.190   2.216  0.2793  0.6509  0.0876
 6902TIP3    H142265   4.560   6.279   2.182  1.0890  1.0621  1.3739
 6902TIP3    H242266   4.546   6.200   2.311 -1.4228 -0.5221  0.2175
 6903TIP3   OH242267   4.878   3.059   2.122  0.1597  0.4235 -0.3430
 6903TIP3    H142268   4.851   3.116   2.194  2.7739  0.0973  1.0204
 6903TIP3    H242269   4.964   3.027   2.147  0.6143 -0.8042 -3.0319
 6904TIP3   OH242270   0.769   6.680   8.045  0.3514 -0.1082  0.1837
 6904TIP3    H142271   0.676   6.670   8.065  0.3689 -2.0472 -0.4974
 6904TIP3    H242272   0.771   6.717   7.957  0.2282  0.0006  0.2265
 6905TIP3   OH242273   0.673   3.522   0.986 -0.3464  0.4556  0.1247
 6905TIP3    H142274   0.661   3.584   0.914  1.2531  1.3900  0.6017
 6905TIP3    H242275   0.767   3.524   1.004 -0.5615 -0.5245  1.5754
 6906TIP3   OH242276   2.693   1.243   3.168  0.1943 -0.2642 -0.1078
 6906TIP3    H142277   2.656   1.196   3.243  1.4094 -0.3880  0.4533
 6906TIP3    H242278   2.680   1.336   3.189 -1.7946 -0.2862 -1.0015
 6907TIP3   OH242279   0.784   2.243   0.644 -0.0830 -0.0258  0.1942
 6907TIP3    H142280   0.773   2.181   0.716  2.6239  0.1250  0.8338
 6907TIP3    H242281   0.716   2.309   0.659 -0.4858 -0.7575  1.7753
 6908TIP3   OH242282   6.796   2.236   2.079 -0.6896  0.3643  0.5203
 6908TIP3    H142283   6.873   2.182   2.061 -1.1867 -0.1617 -0.0517
 6908TIP3    H242284   6.815   2.277   2.163  2.3075  3.9316 -1.5809
 6909TIP3   OH242285   6.911   4.372   7.455 -1.0862 -0.0365  0.2164
 6909TIP3    H142286   6.863   4.426   7.518  1.1693  1.7173  0.5863
 6909TIP3    H242287   6.940   4.434   7.388 -0.0586 -1.1411 -0.3923
 6910TIP3   OH242288   3.933   0.349   0.133  0.3841 -0.1977  0.4802
 6910TIP3    H142289   3.860   0.330   0.191  0.5759 -1.3567  0.3713
 6910TIP3    H242290   4.008   0.305   0.174  0.9996  0.8801  0.5350
 6911TIP3   OH242291   5.901   1.394   8.326 -0.1292 -0.0903  0.4258
 6911TIP3    H142292   5.977   1.359   8.373  0.1682  0.6630  0.5273
 6911TIP3    H242293   5.833   1.402   8.393  0.4588  1.4858  0.8811
 6912TIP3   OH242294   4.009   2.980   0.941  0.1967 -0.3561 -0.2638
 6912TIP3    H142295   3.939   3.030   0.900 -0.7885 -0.6255  1.0195
 6912TIP3    H242296   4.089   3.023   0.913 -0.3494 -0.8242 -2.8622
 6913TIP3   OH242297   6.247   0.375   8.495 -0.4995 -0.0813  0.5270
 6913TIP3    H142298   6.167   0.418   8.525  0.4118  0.7836  1.8455
 6913TIP3    H242299   6.280   0.432   8.425  0.1517  0.8762  1.5650
 6914TIP3   OH242300   6.534   0.549   1.244  0.0746 -0.6048 -0.4517
 6914TIP3    H142301   6.611   0.593   1.208 -0.2116 -0.5407 -0.9978
 6914TIP3    H242302   6.500   0.611   1.308 -0.2670 -0.0538 -1.1469
 6915TIP3   OH242303   1.930   1.032   7.161  0.4190 -0.0825 -0.5066
 6915TIP3    H142304   1.848   0.991   7.134  0.3434  0.6953 -1.4997
 6915TIP3    H242305   1.999   0.977   7.124  0.4035 -1.4149  1.3171
 6916TIP3   OH242306   6.903   1.934   8.476 -0.1161  0.4505  0.1691
 6916TIP3    H142307   6.824   1.948   8.528 -0.9267  0.9745 -1.1356
 6916TIP3    H242308   6.870   1.921   8.387  1.2270 -0.3334 -0.2284
 6917TIP3   OH242309   0.692   3.987   0.744 -0.1503  0.0465  0.1263
 6917TIP3    H142310   0.781   4.016   0.766 -0.1950  0.9919 -0.8251
 6917TIP3    H242311   0.635   4.054   0.782 -0.2998  0.8481 -1.4234
 6918TIP3   OH242312   6.773   2.716   7.533 -0.3318  0.7516 -0.3722
 6918TIP3    H142313   6.782   2.780   7.604 -2.1015 -0.8031  1.3627
 6918TIP3    H242314   6.680   2.719   7.511 -0.2823 -0.6612 -0.8266
 6919TIP3   OH242315   3.995   1.674   0.286 -0.3194  0.7719 -0.4507
 6919TIP3    H142316   3.994   1.626   0.368  0.0516 -0.1510 -0.9687
 6919TIP3    H242317   4.004   1.766   0.311 -2.0523  0.7001  0.6029
 6920TIP3   OH242318   0.261   4.308   8.218  0.9169 -0.7299  0.3912
 6920TIP3    H142319   0.179   4.357   8.220  1.4369  0.2259 -0.5913
 6920TIP3    H242320   0.324   4.365   8.262  1.0970 -1.4216  1.0660
 6921TIP3   OH242321   4.132   5.712   7.076 -0.1158 -0.7518  0.5651
 6921TIP3    H142322   4.054   5.668   7.044  1.2163 -2.3357 -0.6413
 6921TIP3    H242323   4.133   5.796   7.030 -1.5605 -0.3057  1.2988
 6922TIP3   OH242324   0.598   1.433   7.480  0.1812 -0.3455 -0.2735
 6922TIP3    H142325   0.638   1.403   7.398  1.0767 -0.9496  0.3592
 6922TIP3    H242326   0.582   1.353   7.529 -1.9221 -0.1282 -0.5202
 6923TIP3   OH242327   2.501   0.800   7.212 -0.2268 -0.5018  0.1848
 6923TIP3    H142328   2.584   0.808   7.164 -0.6792  1.1803 -0.4148
 6923TIP3    H242329   2.527   0.793   7.304  0.6004  0.2009  0.0220
 6924TIP3   OH242330   2.034   2.790   6.748  0.2515 -0.2809  0.5271
 6924TIP3    H142331   1.979   2.829   6.680  0.3324 -0.6718  0.2351
 6924TIP3    H242332   2.112   2.844   6.750 -0.2803  0.4861  1.1799
 6925TIP3   OH242333   6.064   2.306   1.067  0.3150  0.8332  0.5489
 6925TIP3    H142334   6.018   2.363   1.129 -1.6630 -1.6623  1.5548
 6925TIP3    H242335   6.151   2.293   1.106 -0.6910 -0.2160  2.5732
 6926TIP3   OH242336   1.651   0.618   2.393 -0.2973 -0.2464  0.1731
 6926TIP3    H142337   1.562   0.600   2.423 -0.6167 -0.3188 -0.8056
 6926TIP3    H242338   1.647   0.706   2.357  0.4926  0.5462  1.8711
 6927TIP3   OH242339   4.556   3.740   8.502  0.2828 -0.1965  0.6454
 6927TIP3    H142340   4.569   3.828   8.539 -1.5616  0.3298  0.1680
 6927TIP3    H242341   4.588   3.747   8.412  0.3254 -0.0762  0.6692
 6928TIP3   OH242342   1.098   0.886   2.012 -0.5846  0.2501  0.0539
 6928TIP3    H142343   1.118   0.941   2.088 -1.7524  1.2282 -0.3368
 6928TIP3    H242344   1.008   0.907   1.989 -0.5067 -0.6084 -1.1413
 6929TIP3   OH242345   4.501   3.034   0.060  0.0477  0.4359 -0.4520
 6929TIP3    H142346   4.455   3.065  -0.018 -0.3300 -1.2001 -0.9144
 6929TIP3    H242347   4.572   2.980   0.026 -0.7472 -1.1710  0.2930
 6930TIP3   OH242348   6.748   1.828   3.005 -0.1145 -0.3580  0.1183
 6930TIP3    H142349   6.741   1.739   2.968 -1.8585  0.0802 -0.7099
 6930TIP3    H242350   6.720   1.818   3.096  1.9280 -1.0264  0.7274
 6931TIP3   OH242351   1.664   3.732   2.522 -0.0298 -1.1924  0.9099
 6931TIP3    H142352   1.735   3.671   2.504 -0.1546 -1.2419  0.5886
 6931TIP3    H242353   1.620   3.744   2.438  0.8141  0.4010  0.6653
 6932TIP3   OH242354   4.998   4.368   1.447  0.5602  0.5944  0.2481
 6932TIP3    H142355   4.932   4.413   1.393  0.5168  0.4152  0.1507
 6932TIP3    H242356   5.061   4.334   1.383  0.3405  0.1086  0.2893
 6933TIP3   OH242357   6.220   1.439   6.978  0.4837  0.2014 -0.3240
 6933TIP3    H142358   6.291   1.465   7.038  0.4230  0.5768 -0.4168
 6933TIP3    H242359   6.215   1.510   6.914  2.4956 -1.4592 -2.5445
 6934TIP3   OH242360   6.826   6.255   1.821  0.3973  0.0427 -0.0178
 6934TIP3    H142361   6.845   6.192   1.890  0.3874 -0.9567 -0.9054
 6934TIP3    H242362   6.884   6.230   1.749  0.1979  0.8858 -0.4821
 6935TIP3   OH242363   1.295   2.205   1.702  0.5502 -0.3392 -0.5782
 6935TIP3    H142364   1.382   2.244   1.699  0.3282  0.0978 -2.2353
 6935TIP3    H242365   1.281   2.185   1.795  1.9504  0.6168 -0.1293
 6936TIP3   OH242366   4.982   2.790   1.126 -0.6093 -0.2189 -0.2665
 6936TIP3    H142367   5.065   2.759   1.162 -0.9855  0.2715  1.0480
 6936TIP3    H242368   5.003   2.876   1.088 -0.1629 -0.8412 -1.5121
 6937TIP3   OH242369   1.145   0.502   2.613  0.0023  0.4271  0.1283
 6937TIP3    H142370   1.078   0.515   2.546  1.2976  0.8699 -1.1293
 6937TIP3    H242371   1.180   0.589   2.629 -0.0483  0.2669  1.1309
 6938TIP3   OH242372   1.853   2.712   2.074 -0.2180  0.9168  0.0219
 6938TIP3    H142373   1.801   2.668   2.007 -0.7048  0.9906  0.3478
 6938TIP3    H242374   1.861   2.802   2.042  0.4076  0.7088 -0.4290
 6939TIP3   OH242375   1.753   2.164   7.197  0.7684  0.1849 -0.2941
 6939TIP3    H142376   1.787   2.080   7.225 -0.6054 -0.6933 -1.1421
 6939TIP3    H242377   1.829   2.210   7.161  1.6962 -0.3239  0.9336
 6940TIP3   OH242378   4.823   3.849   0.617  1.0363  0.0443 -0.2370
 6940TIP3    H142379   4.882   3.912   0.658  1.2672  0.8208 -1.7214
 6940TIP3    H242380   4.736   3.873   0.649  1.3132 -0.0193  0.5935
 6941TIP3   OH242381   3.789   6.785   0.043 -0.3366  0.4716  0.5709
 6941TIP3    H142382   3.770   6.873   0.011 -1.5520 -0.3139 -1.0128
 6941TIP3    H242383   3.825   6.739  -0.033 -0.5486 -0.6426  1.1177
 6942TIP3   OH242384   6.300   5.413   8.515 -0.9692  0.4259 -0.4904
 6942TIP3    H142385   6.318   5.396   8.607 -3.3976 -1.2048 -0.2014
 6942TIP3    H242386   6.259   5.332   8.484 -1.6202  1.4919 -2.5921
 6943TIP3   OH242387   3.599   4.905   1.166 -0.3593  0.1017  0.2923
 6943TIP3    H142388   3.533   4.930   1.230 -0.3500 -0.7470  0.6482
 6943TIP3    H242389   3.569   4.820   1.133  0.0312  0.1798 -0.2794
 6944TIP3   OH242390   1.228   1.482   0.759 -0.4921 -0.4256  0.0830
 6944TIP3    H142391   1.134   1.463   0.747 -0.4864  0.2092 -1.1332
 6944TIP3    H242392   1.232   1.577   0.771  0.0167 -0.4075 -0.2052
 6945TIP3   OH242393   4.107   4.712   7.189  0.1963 -0.6058  0.4006
 6945TIP3    H142394   4.119   4.763   7.270  0.1157  0.1454 -0.0536
 6945TIP3    H242395   4.175   4.745   7.130  0.5922 -1.5234  0.3302
 6946TIP3   OH242396   4.083   3.149   1.514  0.0850  0.2690  1.0803
 6946TIP3    H142397   4.062   3.057   1.496  1.3341  0.0134  0.8130
 6946TIP3    H242398   4.007   3.182   1.562 -1.5259 -0.1626 -1.0231
 6947TIP3   OH242399   5.137   3.032   0.931  0.1132 -0.0958 -0.5947
 6947TIP3    H142400   5.047   3.046   0.959  0.4302  0.9557 -0.0598
 6947TIP3    H242401   5.130   2.969   0.859 -0.9461 -0.7829  0.0842
 6948TIP3   OH242402   0.237   5.504   6.963  0.1199 -0.0060 -0.0156
 6948TIP3    H142403   0.159   5.559   6.975  0.3585  0.2589  0.3754
 6948TIP3    H242404   0.203   5.416   6.950 -0.2324 -0.0158  0.9011
 6949TIP3   OH242405   5.891   0.896   1.529  0.4573  0.5071 -0.3396
 6949TIP3    H142406   5.894   0.903   1.433 -0.2742  1.1082 -0.3268
 6949TIP3    H242407   5.897   0.986   1.560 -1.9082  0.6087  0.0768
 6950TIP3   OH242408   2.527   2.043   0.977 -0.1936 -0.1886 -0.7854
 6950TIP3    H142409   2.490   1.957   0.957 -1.4725 -0.6948  2.9885
 6950TIP3    H242410   2.618   2.026   0.999 -0.6451 -0.7906  0.7404
 6951TIP3   OH242411   6.140   4.068   0.604  0.4226  0.1824 -0.1460
 6951TIP3    H142412   6.118   4.155   0.637 -1.2411  0.3349 -1.5557
 6951TIP3    H242413   6.056   4.024   0.590  1.2131 -1.7149  0.6097
 6952TIP3   OH242414   3.365   0.703   7.780 -0.1579 -0.6344 -0.1890
 6952TIP3    H142415   3.408   0.627   7.820 -1.6577 -1.4265 -0.0044
 6952TIP3    H242416   3.432   0.771   7.778  0.8836 -1.6050  0.7020
 6953TIP3   OH242417   4.226   1.113   0.634  0.0633  0.1827 -0.4836
 6953TIP3    H142418   4.254   1.174   0.702  0.4939  0.8915 -1.2603
 6953TIP3    H242419   4.150   1.155   0.594 -0.0466 -0.1157 -0.5904
 6954TIP3   OH242420   3.725   0.134   1.701  0.2036 -0.0242 -0.0785
 6954TIP3    H142421   3.785   0.093   1.638 -0.2248 -0.6038 -0.1226
 6954TIP3    H242422   3.775   0.139   1.782  1.4104  2.4045 -0.8915
 6955TIP3   OH242423   0.942   3.168   2.146 -0.5083  0.3407  0.3091
 6955TIP3    H142424   0.863   3.133   2.106  0.2837 -0.5032 -0.5659
 6955TIP3    H242425   0.962   3.108   2.217  1.6338 -2.0034 -2.0456
 6956TIP3   OH242426   5.159   4.535   1.919  0.4327 -0.3842 -0.3171
 6956TIP3    H142427   5.155   4.500   1.830  0.1262 -1.3264  0.0570
 6956TIP3    H242428   5.230   4.599   1.916 -0.8799  1.0938 -1.7427
 6957TIP3   OH242429   0.641   5.567   0.894 -0.0166  0.2283 -0.3190
 6957TIP3    H142430   0.607   5.520   0.818  1.2796 -0.2918 -0.5850
 6957TIP3    H242431   0.627   5.660   0.872 -2.9073  0.0594  0.3658
 6958TIP3   OH242432   0.172   1.310   7.173  0.1579 -0.1243  0.5298
 6958TIP3    H142433   0.118   1.232   7.160 -1.1063  0.7725  0.2027
 6958TIP3    H242434   0.130   1.378   7.120  2.0036  0.4637 -0.2795
 6959TIP3   OH242435   1.527   4.609   1.112 -0.5115 -0.5419  0.3689
 6959TIP3    H142436   1.574   4.677   1.063 -1.4432 -0.6787 -0.7628
 6959TIP3    H242437   1.586   4.534   1.112 -1.3159 -1.2845 -2.4944
 6960TIP3   OH242438   1.854   1.403   7.856 -0.8046 -0.3003  0.4538
 6960TIP3    H142439   1.761   1.404   7.876 -1.1026 -0.5725 -0.8344
 6960TIP3    H242440   1.858   1.386   7.762  0.5220  0.6627  0.3193
 6961TIP3   OH242441   1.386   0.250   0.033 -0.4986  0.6876 -0.0067
 6961TIP3    H142442   1.342   0.168   0.008  0.1044  0.5594 -0.7168
 6961TIP3    H242443   1.414   0.288  -0.051  0.8327  0.6931  0.4120
 6962TIP3   OH242444   0.608   0.320   1.696 -0.4594 -0.3033  0.1034
 6962TIP3    H142445   0.531   0.366   1.663 -0.8057  0.0016  1.3009
 6962TIP3    H242446   0.574   0.239   1.734  0.0732 -1.2543 -1.3680
 6963TIP3   OH242447   1.297   6.098   8.546 -0.4201 -0.2659  0.2831
 6963TIP3    H142448   1.331   6.015   8.514  1.4121 -0.3799  2.2665
 6963TIP3    H242449   1.273   6.148   8.468 -0.6224 -2.2558 -0.9704
 6964TIP3   OH242450   2.626   3.897   0.878  0.2506 -0.3978  0.6539
 6964TIP3    H142451   2.572   3.878   0.955  0.7216 -1.7369  0.6839
 6964TIP3    H242452   2.663   3.984   0.895 -0.9801  0.0474  1.1496
 6965TIP3   OH242453   5.447   0.666   7.349  0.1347  0.6515 -0.2100
 6965TIP3    H142454   5.479   0.607   7.281 -0.3801  1.9893 -1.6889
 6965TIP3    H242455   5.396   0.610   7.407 -0.8310 -0.3074 -1.8779
 6966TIP3   OH242456   4.794   6.260   8.447  0.2517  0.7780  0.6386
 6966TIP3    H142457   4.807   6.293   8.358 -0.3664  0.1770  0.3231
 6966TIP3    H242458   4.704   6.285   8.469 -0.4480 -1.1898  0.1678
 6967TIP3   OH242459   6.670   3.155   1.542  0.4326  0.1691 -0.3612
 6967TIP3    H142460   6.585   3.111   1.534  0.7842 -0.8800  1.3178
 6967TIP3    H242461   6.649   3.240   1.581 -0.1771  1.3893 -3.0797
 6968TIP3   OH242462   5.613   5.523   3.141 -0.2183  0.0962  0.4277
 6968TIP3    H142463   5.620   5.619   3.142  1.0996  0.0369  0.0078
 6968TIP3    H242464   5.696   5.493   3.179  0.7100 -0.8655 -2.0985
 6969TIP3   OH242465   3.559   0.908   7.774 -0.3095  0.6327  0.2781
 6969TIP3    H142466   3.590   0.985   7.822  0.2244  0.7620 -0.2631
 6969TIP3    H242467   3.598   0.834   7.818  0.6314  0.7833 -0.2786
 6970TIP3   OH242468   5.522   1.712   8.174  0.1835 -0.2976 -0.4597
 6970TIP3    H142469   5.518   1.705   8.079  2.0828 -0.7320 -0.5283
 6970TIP3    H242470   5.455   1.651   8.205  1.0450 -1.8219 -1.4917
 6971TIP3   OH242471   2.144   0.891   6.996  0.5473  0.2363  0.1140
 6971TIP3    H142472   2.229   0.859   6.967  0.7956  1.1909 -0.2613
 6971TIP3    H242473   2.147   0.986   6.980 -0.2831  0.4059  0.8435
 6972TIP3   OH242474   0.631   6.089   7.562  0.1332 -0.4122 -0.2847
 6972TIP3    H142475   0.562   6.108   7.626  0.8580 -2.2773  1.1642
 6972TIP3    H242476   0.707   6.066   7.616  1.0081 -1.3161 -1.8380
 6973TIP3   OH242477   0.775   6.514   1.978  0.0754  0.3592  0.4991
 6973TIP3    H142478   0.725   6.443   2.018  0.7730 -1.7141 -2.0012
 6973TIP3    H242479   0.841   6.537   2.044  0.7904 -2.4201  0.9108
 6974TIP3   OH242480   0.568   2.370   6.560 -0.2110  0.6533  0.2392
 6974TIP3    H142481   0.511   2.293   6.557  2.3472 -1.3638  0.0644
 6974TIP3    H242482   0.508   2.444   6.553 -2.8140 -1.2849  0.4647
 6975TIP3   OH242483   3.982   6.911   0.561 -0.1386 -0.4571  0.1855
 6975TIP3    H142484   3.938   6.913   0.476 -0.8666 -0.9241  0.5477
 6975TIP3    H242485   3.941   6.982   0.610  0.7544  0.2614 -0.0661
 6976TIP3   OH242486   5.038   4.226   8.365 -0.3930 -0.4972 -1.0090
 6976TIP3    H142487   4.970   4.268   8.313 -0.5047  0.3530 -0.2064
 6976TIP3    H242488   5.103   4.295   8.380 -0.6557 -0.5318  0.4771
 6977TIP3   OH242489   3.732   1.533   0.209 -0.5522  0.1484 -0.1637
 6977TIP3    H142490   3.785   1.533   0.288  1.0553  1.1473 -1.1889
 6977TIP3    H242491   3.717   1.440   0.190  0.4044 -0.1375  0.4305
 6978TIP3   OH242492   5.543   5.710   0.666  0.1504 -0.2191  0.1703
 6978TIP3    H142493   5.610   5.660   0.618  1.0279  1.5699 -0.5726
 6978TIP3    H242494   5.470   5.717   0.605 -0.5734 -1.7203  0.7915
 6979TIP3   OH242495   1.284   2.024   7.018 -0.0601 -0.1330 -0.4067
 6979TIP3    H142496   1.306   1.944   6.970  2.0735  0.8821 -1.2190
 6979TIP3    H242497   1.247   2.083   6.953 -1.3259 -0.2918  0.1292
 6980TIP3   OH242498   0.613   6.076   1.068 -0.1957  0.4406 -0.3923
 6980TIP3    H142499   0.582   6.070   1.158 -0.6591  0.5990 -0.5393
 6980TIP3    H242500   0.707   6.092   1.076 -0.1535  0.0048  0.0586
 6981TIP3   OH242501   2.304   2.769   2.088  0.8726 -0.1298  0.1321
 6981TIP3    H142502   2.245   2.716   2.034  0.7586 -1.6172  1.6296
 6981TIP3    H242503   2.278   2.750   2.178  2.0595  1.0722  0.7669
 6982TIP3   OH242504   4.176   5.708   2.106 -0.0249 -0.4906 -0.1974
 6982TIP3    H142505   4.270   5.707   2.087  0.1803 -2.1530  0.6405
 6982TIP3    H242506   4.136   5.660   2.034 -0.4217  1.1824 -1.1534
 6983TIP3   OH242507   1.864   4.758   1.280  0.3243 -0.0257  0.3431
 6983TIP3    H142508   1.900   4.786   1.364  0.6983  1.8001 -0.3889
 6983TIP3    H242509   1.898   4.820   1.217 -0.5217 -0.9400 -1.0785
 6984TIP3   OH242510   6.614   1.992   7.098 -0.0364  0.1497  0.1799
 6984TIP3    H142511   6.522   1.976   7.078  0.0223 -0.1358  0.1409
 6984TIP3    H242512   6.646   2.043   7.024 -0.6107  1.8206  1.0213
 6985TIP3   OH242513   1.633   0.905   1.168 -0.1776  0.2104 -0.1893
 6985TIP3    H142514   1.600   0.837   1.227 -0.5724  0.5458 -0.0215
 6985TIP3    H242515   1.672   0.856   1.095  1.1981 -0.2240  0.7977
 6986TIP3   OH242516   3.652   3.527   6.911 -0.5821 -0.0298  0.5552
 6986TIP3    H142517   3.579   3.500   6.967 -1.6443 -0.9083 -1.1563
 6986TIP3    H242518   3.699   3.446   6.892  1.2366  0.5861  2.0544
 6987TIP3   OH242519   6.673   6.499   7.963 -0.1106  0.1237  0.5829
 6987TIP3    H142520   6.725   6.432   8.006  1.1711  1.0271  0.5031
 6987TIP3    H242521   6.657   6.565   8.031 -2.4261 -0.7968  1.0069
 6988TIP3   OH242522   3.532   3.845   1.445  0.5812  0.6089 -0.0426
 6988TIP3    H142523   3.460   3.907   1.451 -0.6432 -0.7429 -0.3465
 6988TIP3    H242524   3.516   3.782   1.516  1.6773  0.5012  0.1315
 6989TIP3   OH242525   4.122   0.055   7.464 -0.2911  0.5443  0.6025
 6989TIP3    H142526   4.128   0.122   7.531 -1.2487  0.0761  1.1701
 6989TIP3    H242527   4.127   0.103   7.381  0.2617  1.1793  0.9984
 6990TIP3   OH242528   1.333   1.162   2.060  0.3547 -0.4639  0.1350
 6990TIP3    H142529   1.259   1.146   2.119 -0.5905  2.2756 -0.1620
 6990TIP3    H242530   1.326   1.094   1.993 -2.8789  0.5319 -0.7364
 6991TIP3   OH242531   6.555   6.113   7.874  0.1748 -1.1352  0.1522
 6991TIP3    H142532   6.623   6.180   7.871 -1.8962  1.1132  0.0297
 6991TIP3    H242533   6.574   6.056   7.799  1.0085  0.3762 -0.8384
 6992TIP3   OH242534   3.285   1.403   7.716 -1.1284  0.3864 -0.2020
 6992TIP3    H142535   3.376   1.421   7.692 -0.0346  1.2786  3.9021
 6992TIP3    H242536   3.260   1.330   7.659  2.7753 -1.1171 -0.3125
 6993TIP3   OH242537   4.924   0.522   0.053 -0.1104  0.1322  0.1429
 6993TIP3    H142538   4.875   0.476   0.121 -0.9969 -0.1987 -0.7038
 6993TIP3    H242539   5.015   0.493   0.065 -0.3398 -0.3235  0.8412
 6994TIP3   OH242540   5.700   4.073   0.714 -0.1156 -0.3388 -0.0455
 6994TIP3    H142541   5.780   4.021   0.717 -1.3120 -2.3693 -0.8204
 6994TIP3    H242542   5.636   4.021   0.763 -1.2369  0.6808 -0.3809
 6995TIP3   OH242543   1.291   0.221   1.265  0.3687 -0.3184 -0.0499
 6995TIP3    H142544   1.344   0.292   1.301  2.2665 -0.7102 -1.8459
 6995TIP3    H242545   1.201   0.253   1.270  0.8549  0.9206  1.9430
 6996TIP3   OH242546   5.570   1.496   7.978  0.5101 -0.4025  0.2300
 6996TIP3    H142547   5.643   1.509   8.038  1.5793 -1.6101 -0.7411
 6996TIP3    H242548   5.561   1.580   7.932  1.1122 -0.1491  0.5580
 6997TIP3   OH242549   4.536   2.078   0.113 -0.7662 -0.1852  0.5406
 6997TIP3    H142550   4.457   2.102   0.161 -0.1857 -0.7504  1.8230
 6997TIP3    H242551   4.571   2.002   0.160 -0.3331 -0.9647 -0.9656
 6998TIP3   OH242552   5.895   3.684   1.592  0.0618  0.1639 -0.1081
 6998TIP3    H142553   5.879   3.721   1.679  0.5038  1.1970 -0.4561
 6998TIP3    H242554   5.980   3.719   1.565  0.9822 -1.8808 -0.0671
 6999TIP3   OH242555   6.370   2.570   0.017  0.5308 -0.0752  0.6996
 6999TIP3    H142556   6.346   2.504  -0.048  0.4297  0.4975  0.1562
 6999TIP3    H242557   6.291   2.583   0.069 -0.1508  1.2807 -0.6327
 7000TIP3   OH242558   5.891   1.931   8.200  0.0979  0.4257  0.1640
 7000TIP3    H142559   5.931   2.003   8.250  0.1768 -0.1696  0.9919
 7000TIP3    H242560   5.859   1.871   8.268 -1.4916  0.5003 -0.4936
 7001TIP3   OH242561   1.223   6.726   0.944 -0.0389 -0.2770  0.2716
 7001TIP3    H142562   1.166   6.782   0.891  1.7190 -0.4452 -1.9645
 7001TIP3    H242563   1.187   6.638   0.932  0.4750 -0.3461 -0.8860
 7002TIP3   OH242564   4.551   5.122   1.544 -0.6628 -0.3750  0.1775
 7002TIP3    H142565   4.524   5.168   1.465 -0.4695  2.0494  1.4129
 7002TIP3    H242566   4.629   5.073   1.518 -1.9586 -1.6031 -1.6512
 7003TIP3   OH242567   4.657   0.699   1.441 -0.1660  0.3582  0.1446
 7003TIP3    H142568   4.614   0.743   1.514  0.6444  1.2711  0.0794
 7003TIP3    H242569   4.741   0.672   1.476 -0.3281 -0.4396 -0.0570
 7004TIP3   OH242570   4.976   3.122   8.551 -0.4076  0.2569  0.4561
 7004TIP3    H142571   5.065   3.151   8.570 -0.0632 -1.7786  2.3818
 7004TIP3    H242572   4.981   3.085   8.463  1.0137 -0.9466  1.0025
 7005TIP3   OH242573   5.498   1.889   1.418  0.4670 -0.3647 -0.3584
 7005TIP3    H142574   5.586   1.912   1.389  1.8842 -0.8781  3.0313
 7005TIP3    H242575   5.510   1.858   1.508 -3.2978  0.2475  0.5216
 7006TIP3   OH242576   4.104   2.919   7.520  0.5172 -0.1401  0.1772
 7006TIP3    H142577   4.019   2.894   7.482  1.2271 -0.8703 -1.0005
 7006TIP3    H242578   4.167   2.904   7.449  2.1412 -2.9747  2.0582
 7007TIP3   OH242579   2.596   0.281   7.947 -0.1739 -0.4240  0.7260
 7007TIP3    H142580   2.665   0.214   7.944  1.1369  0.8025  2.1505
 7007TIP3    H242581   2.630   0.348   8.005 -1.4935  1.4684 -0.5693
 7008TIP3   OH242582   5.349   1.713   2.600  0.0285  0.3085 -0.1568
 7008TIP3    H142583   5.272   1.690   2.652  0.6716  0.8138  1.0579
 7008TIP3    H242584   5.380   1.629   2.564 -0.7952  0.0395 -0.2532
 7009TIP3   OH242585   4.573   2.407   2.996  0.2171 -0.7372  0.4235
 7009TIP3    H142586   4.581   2.501   2.984  1.9615 -0.5016  2.7454
 7009TIP3    H242587   4.491   2.396   3.044 -1.5565 -0.7980 -2.3512
 7010TIP3   OH242588   4.483   6.032   0.093  0.6388 -0.1932  0.4902
 7010TIP3    H142589   4.552   6.095   0.071 -1.6815  2.2406 -0.2926
 7010TIP3    H242590   4.487   5.966   0.024  0.9378  1.0057 -0.6697
 7011TIP3   OH242591   5.618   2.397   8.428  0.2638  0.3534 -0.3477
 7011TIP3    H142592   5.559   2.421   8.356  0.3562  0.3090 -0.4404
 7011TIP3    H242593   5.687   2.464   8.426  0.3291  0.2862 -0.3764
 7012TIP3   OH242594   3.136   1.630   2.645 -0.1783 -0.8523 -0.1423
 7012TIP3    H142595   3.158   1.593   2.731 -0.9251  0.7779  0.8033
 7012TIP3    H242596   3.168   1.720   2.649 -0.2014 -0.7669 -1.5973
 7013TIP3   OH242597   4.664   5.083   8.400  0.5730  0.0797 -0.1587
 7013TIP3    H142598   4.582   5.118   8.437  0.0317 -1.0107 -0.2809
 7013TIP3    H242599   4.701   5.031   8.471 -0.3873 -1.8925 -1.0297
 7014TIP3   OH242600   2.720   4.906   8.050 -0.2077 -0.2228 -0.2790
 7014TIP3    H142601   2.715   4.812   8.036  1.0442 -0.2664 -0.5168
 7014TIP3    H242602   2.777   4.917   8.125  1.5699  0.4030 -1.6499
 7015TIP3   OH242603   4.211   1.275   0.868 -0.0960  0.5295 -0.4890
 7015TIP3    H142604   4.190   1.277   0.961 -0.5356 -1.9205 -0.4641
 7015TIP3    H242605   4.306   1.288   0.864 -0.0834  0.6952  0.2841
 7016TIP3   OH242606   3.139   0.959   1.143  0.1745 -0.0495 -0.3246
 7016TIP3    H142607   3.104   0.923   1.225  2.0947  0.1096  0.6407
 7016TIP3    H242608   3.221   0.911   1.130  0.5091  0.8048 -1.4833
 7017TIP3   OH242609   0.650   1.663   7.088 -0.3208  0.7967  0.0105
 7017TIP3    H142610   0.613   1.656   7.000 -0.9358 -0.9350  0.3674
 7017TIP3    H242611   0.587   1.617   7.144  0.8211  0.5237  1.1124
 7018TIP3   OH242612   4.140   2.189   2.307  0.0149  0.1672  0.6204
 7018TIP3    H142613   4.223   2.210   2.348 -1.2096  2.8669  2.0104
 7018TIP3    H242614   4.079   2.180   2.380 -1.1310 -0.6549 -0.3955
 7019TIP3   OH242615   0.493   5.002   1.885 -0.0301 -0.3287  0.2015
 7019TIP3    H142616   0.562   4.945   1.919  0.5147 -0.9287 -1.7739
 7019TIP3    H242617   0.420   4.991   1.946  1.7458  0.7498  2.6593
 7020TIP3   OH242618   2.371   6.829   0.791 -0.2791  0.1335 -0.5727
 7020TIP3    H142619   2.383   6.845   0.697  0.8830  0.6425 -0.3656
 7020TIP3    H242620   2.394   6.737   0.804 -0.3607  0.0857 -0.7746
 7021TIP3   OH242621   6.602   3.424   1.632  0.0374 -0.1401  0.0578
 7021TIP3    H142622   6.515   3.414   1.670 -0.7375  1.1767 -1.2903
 7021TIP3    H242623   6.661   3.419   1.707 -1.0882 -1.9745  0.8921
 7022TIP3   OH242624   5.741   5.393   7.105  0.2921  0.0796  0.1989
 7022TIP3    H142625   5.768   5.439   7.026  1.5188 -0.3961  0.3238
 7022TIP3    H242626   5.698   5.459   7.159  0.0882  0.5629 -0.5499
 7023TIP3   OH242627   6.671   2.426   6.996  0.2739 -0.5186  0.4550
 7023TIP3    H142628   6.602   2.438   7.061  0.2298  0.5336  0.2326
 7023TIP3    H242629   6.696   2.515   6.970  1.9934 -0.8631  0.8075
 7024TIP3   OH242630   6.325   2.609   2.009  0.2008  0.2938 -0.1068
 7024TIP3    H142631   6.355   2.699   2.002 -0.9691  0.6201 -1.1694
 7024TIP3    H242632   6.296   2.601   2.100 -1.2097  1.5052 -0.4093
 7025TIP3   OH242633   2.230   3.200   0.396 -0.4023  0.2483 -0.0652
 7025TIP3    H142634   2.275   3.139   0.337  0.2788  0.6535  0.0289
 7025TIP3    H242635   2.249   3.168   0.483  1.6410  1.6894  0.0886
 7026TIP3   OH242636   5.460   2.166   1.420 -0.5422  0.1618  0.7697
 7026TIP3    H142637   5.471   2.072   1.426 -1.5437  0.1122  2.4111
 7026TIP3    H242638   5.490   2.200   1.504  2.1064  1.6148 -0.6162
 7027TIP3   OH242639   1.692   4.657   3.114  0.6763 -0.6817  0.6261
 7027TIP3    H142640   1.671   4.618   3.029 -0.4251 -1.0201  1.0339
 7027TIP3    H242641   1.744   4.590   3.160  1.0152 -0.6168  0.3418
 7028TIP3   OH242642   6.135   1.260   6.640  0.0409 -0.0063  0.0572
 7028TIP3    H142643   6.163   1.351   6.641 -1.7558  0.6029 -0.9531
 7028TIP3    H242644   6.045   1.263   6.609 -0.1509 -2.1136  0.2767
 7029TIP3   OH242645   1.845   0.242   7.721  0.1953  0.1145  0.2771
 7029TIP3    H142646   1.783   0.213   7.788  0.3877 -0.3608  0.2547
 7029TIP3    H242647   1.862   0.163   7.668  0.8162  0.2410  0.2821
 7030TIP3   OH242648   6.478   0.150   8.099 -0.2734 -0.5387  0.0514
 7030TIP3    H142649   6.543   0.217   8.079 -1.1651  0.0027 -1.2162
 7030TIP3    H242650   6.404   0.198   8.136 -0.6096 -0.9165 -0.1221
 7031TIP3   OH242651   0.906   5.596   6.951 -0.2120 -0.0453 -0.4578
 7031TIP3    H142652   0.931   5.688   6.944 -0.0911 -0.1861 -2.6699
 7031TIP3    H242653   0.971   5.549   6.899 -2.2520 -0.9437 -2.3822
 7032TIP3   OH242654   5.810   6.621   1.748 -0.2153 -0.1314  0.0046
 7032TIP3    H142655   5.759   6.675   1.688  0.5585  0.8605  0.2122
 7032TIP3    H242656   5.783   6.531   1.729 -0.8190  0.2575 -1.0257
 7033TIP3   OH242657   2.597   3.530   7.686 -0.2527 -0.0578 -0.6135
 7033TIP3    H142658   2.601   3.498   7.595 -1.3360  0.4570 -0.8615
 7033TIP3    H242659   2.647   3.611   7.685  0.5425 -0.5415 -0.5237
 7034TIP3   OH242660   6.145   5.262   7.770  0.3953  0.2232 -0.1500
 7034TIP3    H142661   6.238   5.249   7.786  0.4877 -1.7350 -1.8551
 7034TIP3    H242662   6.141   5.333   7.706  0.6226  0.9654  0.6366
 7035TIP3   OH242663   6.699   3.884   2.033 -0.1688 -0.2011  0.4704
 7035TIP3    H142664   6.771   3.825   2.058  1.7196  1.7744  0.0028
 7035TIP3    H242665   6.667   3.849   1.950  1.3501 -0.2675 -0.1258
 7036TIP3   OH242666   3.246   0.687   6.932 -0.3602 -0.1991 -0.6523
 7036TIP3    H142667   3.155   0.692   6.961 -0.4758  0.0789 -1.0517
 7036TIP3    H242668   3.248   0.740   6.852  0.1530 -0.1996 -0.6401
 7037TIP3   OH242669   4.909   3.248   1.901  0.1948 -0.0289  0.3059
 7037TIP3    H142670   4.864   3.190   1.962  0.3600 -0.0705  0.3878
 7037TIP3    H242671   4.991   3.203   1.880 -0.7774 -1.0333 -1.5881
 7038TIP3   OH242672   2.786   1.056   0.761 -0.6249  0.2099 -0.3961
 7038TIP3    H142673   2.811   0.987   0.700  1.2814  2.1772 -1.9999
 7038TIP3    H242674   2.864   1.070   0.815 -1.1629  0.7489  0.2627
 7039TIP3   OH242675   6.844   1.593   8.363 -0.4057  0.4094  0.3355
 7039TIP3    H142676   6.925   1.544   8.347 -0.7558  0.0129 -0.2263
 7039TIP3    H242677   6.871   1.685   8.355 -0.3240  0.2677 -1.5325
 7040TIP3   OH242678   3.936   0.779   2.473 -0.1097  0.6259  0.0426
 7040TIP3    H142679   3.950   0.783   2.378 -0.2721 -3.3198 -0.3027
 7040TIP3    H242680   3.844   0.752   2.482  0.1289  0.1932  1.3051
 7041TIP3   OH242681   4.060   1.650   1.495  0.0287 -0.0954  0.3444
 7041TIP3    H142682   4.050   1.723   1.434 -1.0191  1.0953  1.8483
 7041TIP3    H242683   3.981   1.598   1.483 -0.3831  0.3721  0.9320
 7042TIP3   OH242684   3.078   4.478   8.508 -0.0801  0.0194  0.3419
 7042TIP3    H142685   3.083   4.573   8.496  0.7463 -0.3215 -2.6194
 7042TIP3    H242686   3.169   4.449   8.509 -0.3300 -1.0346 -2.2342
 7043TIP3   OH242687   6.289   0.972   8.055  0.4920 -0.1088 -0.0845
 7043TIP3    H142688   6.324   1.021   7.981 -0.9798  0.2709 -0.5579
 7043TIP3    H242689   6.353   0.985   8.124  0.8609  1.2933 -0.6476
 7044TIP3   OH242690   5.446   5.790   2.538 -0.2672 -0.4499 -0.3886
 7044TIP3    H142691   5.394   5.752   2.467  0.7326  0.5102 -1.6812
 7044TIP3    H242692   5.507   5.720   2.562 -1.3599 -1.1820  0.3539
 7045TIP3   OH242693   0.747   0.894   1.106 -0.1392  0.0094  0.0800
 7045TIP3    H142694   0.796   0.900   1.188 -0.9687  0.0984  0.5784
 7045TIP3    H242695   0.775   0.811   1.067 -1.0382 -0.8967  1.3105
 7046TIP3   OH242696   1.227   2.489   7.444 -0.3786  0.0735  0.9155
 7046TIP3    H142697   1.316   2.479   7.411 -0.1667 -0.8997  1.7003
 7046TIP3    H242698   1.180   2.413   7.411 -0.9143  0.5627  0.5344
 7047TIP3   OH242699   6.562   5.581   8.495  0.3462  0.2320 -0.1111
 7047TIP3    H142700   6.526   5.493   8.507  2.0353 -0.2891  1.6444
 7047TIP3    H242701   6.635   5.570   8.434  0.6921  0.3721  0.2740
 7048TIP3   OH242702   5.340   3.711   1.451 -0.9794  0.7332  0.4743
 7048TIP3    H142703   5.402   3.764   1.401  0.3935 -1.7172 -0.6131
 7048TIP3    H242704   5.357   3.734   1.543  0.5301  1.1415  0.1149
 7049TIP3   OH242705   1.992   3.117   7.167  0.5015  0.0452 -0.6597
 7049TIP3    H142706   1.996   3.115   7.071  0.7031 -0.4756 -0.6488
 7049TIP3    H242707   2.083   3.133   7.194  0.4821 -0.0149 -0.5570
 7050TIP3   OH242708   2.169   0.777   1.450  0.5623 -0.1642  0.4158
 7050TIP3    H142709   2.223   0.792   1.372 -1.3622 -0.6553 -1.0822
 7050TIP3    H242710   2.093   0.834   1.437 -0.4596 -1.3094  1.2285
 7051TIP3   OH242711   4.578   4.300   6.949 -0.0705  0.4855 -0.5648
 7051TIP3    H142712   4.485   4.305   6.968  0.4487 -0.3396  2.6717
 7051TIP3    H242713   4.590   4.212   6.912 -0.2518 -0.5660  1.7112
 7052TIP3   OH242714   3.687   5.396   7.814  0.0986  0.8931  0.3822
 7052TIP3    H142715   3.728   5.478   7.784  0.5554  0.6762  0.4024
 7052TIP3    H242716   3.747   5.364   7.882 -0.0088  0.4715  0.2783
 7053TIP3   OH242717   2.508   2.679   1.839  0.9312 -0.3428 -0.8262
 7053TIP3    H142718   2.415   2.671   1.818  0.5504  0.5769  0.3943
 7053TIP3    H242719   2.549   2.705   1.756 -0.2188  1.1959 -0.9634
 7054TIP3   OH242720   0.544   4.288   2.598  0.3350 -0.1206 -0.1254
 7054TIP3    H142721   0.497   4.336   2.530  0.8295  0.3441 -0.1419
 7054TIP3    H242722   0.499   4.311   2.679  0.7912  0.6643 -0.0858
 7055LIG      O42723   5.879   3.581   0.914  0.2150 -0.2808 -0.2339
 7055LIG      N42724   6.168   3.859   1.062  0.8365 -0.0670 -0.4407
 7055LIG     C142725   6.061   3.435   0.851  0.8617  0.1588 -0.8833
 7055LIG     C242726   6.006   3.534   0.959 -0.1001 -0.5865  0.3368
 7055LIG     C342727   6.073   3.500   0.712 -0.3543  0.1100 -0.5612
 7055LIG     C442728   6.191   3.364   0.888 -0.6756 -0.1599  0.2907
 7055LIG     C542729   6.088   3.666   0.962  0.4072 -0.3131 -0.1218
 7055LIG     C642730   6.117   3.397   0.608  0.0470  0.5028 -0.8006
 7055LIG     C742731   6.216   3.249   0.787 -0.1965  0.7450 -0.5365
 7055LIG     C842732   6.227   3.298   0.648 -0.6486  0.1174 -0.6289
 7055LIG     C942733   6.048   3.772   1.069  0.5375  0.1918  0.5132
 7055LIG    C1042734   5.993   3.457   1.098 -0.2909 -0.3603 -0.2673
 7055LIG    C1142735   6.142   4.009   1.051  0.5372 -0.1640 -0.1634
 7055LIG    C1242736   6.258   3.836   1.173  0.3288  0.0122  0.8518
 7055LIG    C1342737   6.072   4.055   1.180 -0.2434 -0.2152  0.2373
 7055LIG    C1442738   6.197   3.894   1.308 -0.3015  0.0009  0.1714
 7055LIG    C1542739   6.165   4.039   1.301 -0.7718  0.0811 -0.1384
 7055LIG    C1642740   6.082   3.458   1.199 -0.3178 -0.2895  0.2524
 7055LIG    C1742741   5.872   3.385   1.115  0.3209  0.4611  0.0933
 7055LIG    C1842742   6.056   3.391   1.318  0.2580  0.2376  0.5771
 7055LIG    C1942743   5.842   3.311   1.226 -0.2264  0.0911 -0.4566
 7055LIG    C2042744   5.931   3.326   1.338  0.1860 -0.4354 -0.8681
 7055LIG     H142745   5.983   3.357   0.840  1.4558 -0.2803 -2.2605
 7055LIG     H242746   6.153   3.576   0.721 -1.2038  0.8065  1.8075
 7055LIG     H342747   5.976   3.543   0.679 -0.8412 -1.6746 -1.5701
 7055LIG     H442748   6.179   3.313   0.986  1.0689 -2.3055 -0.5193
 7055LIG     H542749   6.278   3.431   0.903 -0.1682 -0.7366 -0.0221
 7055LIG     H642750   6.081   3.722   0.866  0.8394  1.2650  0.7340
 7055LIG     H742751   6.189   3.623   0.975 -0.3862 -2.1409  0.2898
 7055LIG     H842752   6.142   3.452   0.515 -2.3834 -0.0135 -1.8483
 7055LIG     H942753   6.035   3.333   0.569 -0.2511  1.0302 -1.0501
 7055LIG    H1042754   6.139   3.171   0.804  1.7446 -1.4515 -1.3055
 7055LIG    H1142755   6.310   3.195   0.811  0.8857  1.9395 -1.8324
 7055LIG    H1242756   6.324   3.352   0.644 -0.6268  0.1040 -0.2978
 7055LIG    H1342757   6.244   3.210   0.583 -0.1707  0.8438 -1.5122
 7055LIG    H1442758   5.956   3.828   1.040  1.0870  1.2970  0.8632
 7055LIG    H1542759   6.032   3.723   1.168 -2.3713 -0.0465  0.0300
 7055LIG    H1642760   6.072   4.026   0.966 -1.1958 -0.2671  1.1959
 7055LIG    H1742761   6.246   4.048   1.050  0.2012  0.8317  1.2464
 7055LIG    H1842762   6.343   3.904   1.152 -0.7107  1.3231  0.7605
 7055LIG    H1942763   6.296   3.734   1.197  2.6818  0.4035 -0.7701
 7055LIG    H2042764   5.846   3.636   0.985 -1.8546 -0.6548 -0.8584
 7055LIG    H2142765   5.975   4.003   1.184 -1.5907  1.8329 -2.5688
 7055LIG    H2242766   6.038   4.158   1.157  0.5456 -0.2353 -1.0907
 7055LIG    H2342767   6.283   3.887   1.379 -0.6454  2.6087  0.9424
 7055LIG    H2442768   6.111   3.833   1.342 -0.3110 -0.0165  0.1159
 7055LIG    H2542769   6.119   4.068   1.398 -1.1724  0.8255 -0.5442
 7055LIG    H2642770   6.258   4.096   1.280 -0.0130 -0.5907  1.2295
 7055LIG    H2742771   6.180   3.504   1.194 -0.7283  0.8079  1.5841
 7055LIG    H2842772   5.806   3.371   1.031 -2.0324  0.8767  1.7756
 7055LIG    H2942773   6.128   3.407   1.397  0.4184 -1.0298  0.6945
 7055LIG    H3042774   5.745   3.264   1.223 -0.3019  0.1865  0.1945
 7055LIG    H3142775   5.906   3.286   1.435 -1.3503 -1.2030 -1.5523
   6.91648   6.91648   8.58536
