* GENERATED BY CHARMM-GUI (HTTP://WWW.CHARMM-GUI.ORG) V3.7 ON FEB, 18. 2025. JOB
* GENERATES ION CONFORMATION USING MONTE-CARLO SIMULATION
*  DATE:     2/18/25     11:47:42      CREATED BY USER: charmm-gui
*
     22252  EXT
         1         1  CHL1      C3              3.2797905476       -0.8807723304       17.3951650000  MEMB      1               0.0000000000
         2         1  CHL1      H3              4.3718911968       -0.7743405003       17.5692550000  MEMB      1               0.0000000000
         3         1  CHL1      O3              2.5986047924       -0.9163385756       18.6048350000  MEMB      1               0.0000000000
         4         1  CHL1      H3'             3.2670403822       -0.9912938363       19.2897950000  MEMB      1               0.0000000000
         5         1  CHL1      C4              2.8668408324        0.4827235234       16.7531950000  MEMB      1               0.0000000000
         6         1  CHL1      H4A             1.7586709177        0.5333402119       16.6922650000  MEMB      1               0.0000000000
         7         1  CHL1      H4B             3.0713401402        1.3539596340       17.4115650000  MEMB      1               0.0000000000
         8         1  CHL1      C5              3.3794633504        0.5523975752       15.3590750000  MEMB      1               0.0000000000
         9         1  CHL1      C6              4.2073262798        1.5779547621       15.0476750000  MEMB      1               0.0000000000
        10         1  CHL1      H6              4.3938366510        2.3623289901       15.7959950000  MEMB      1               0.0000000000
        11         1  CHL1      C7              4.8709604489        1.7068081331       13.6939250000  MEMB      1               0.0000000000
        12         1  CHL1      H7A             4.8571280548        2.7301851339       13.2616850000  MEMB      1               0.0000000000
        13         1  CHL1      H7B             5.8815835683        1.2494416827       13.7553950000  MEMB      1               0.0000000000
        14         1  CHL1      C8              3.9849705180        0.9422308761       12.6066450000  MEMB      1               0.0000000000
        15         1  CHL1      H8              2.9673613940        1.3775205345       12.5101350000  MEMB      1               0.0000000000
        16         1  CHL1      C14             4.7396337871        0.9456901262       11.2450150000  MEMB      1               0.0000000000
        17         1  CHL1      H14             5.6484668341        0.3727678333       11.5280350000  MEMB      1               0.0000000000
        18         1  CHL1      C15             5.0629631747        2.3802682153       10.5614550000  MEMB      1               0.0000000000
        19         1  CHL1      H15A            4.1914491967        3.0542336455       10.7048450000  MEMB      1               0.0000000000
        20         1  CHL1      H15B            6.0247250478        2.7898811471       10.9376850000  MEMB      1               0.0000000000
        21         1  CHL1      C16             5.1715825542        2.0124644680        9.0579250000  MEMB      1               0.0000000000
        22         1  CHL1      H16A            4.3566849867        2.4888307305        8.4719650000  MEMB      1               0.0000000000
        23         1  CHL1      H16B            6.1271852289        2.4027556200        8.6470450000  MEMB      1               0.0000000000
        24         1  CHL1      C17             4.9984107330        0.4363047143        8.9239850000  MEMB      1               0.0000000000
        25         1  CHL1      H17             5.9906969555        0.0272000336        9.2108850000  MEMB      1               0.0000000000
        26         1  CHL1      C13             4.0494215989        0.0501095458       10.1293250000  MEMB      1               0.0000000000
        27         1  CHL1      C18             2.6074466131        0.5134997705        9.7529650000  MEMB      1               0.0000000000
        28         1  CHL1      H18A            1.7889366938        0.0421145163       10.3379050000  MEMB      1               0.0000000000
        29         1  CHL1      H18B            2.5803824129        1.6136756861        9.9052750000  MEMB      1               0.0000000000
        30         1  CHL1      H18C            2.3817640076        0.2598725944        8.6951050000  MEMB      1               0.0000000000
        31         1  CHL1      C12             4.0859046084       -1.3835982019       10.7008550000  MEMB      1               0.0000000000
        32         1  CHL1      H12A            3.5113808657       -1.9710231534        9.9530650000  MEMB      1               0.0000000000
        33         1  CHL1      H12B            5.1105432813       -1.8005930129       10.5981350000  MEMB      1               0.0000000000
        34         1  CHL1      C11             3.3135558448       -1.4838265100       12.0795150000  MEMB      1               0.0000000000
        35         1  CHL1      H11A            2.2184765924       -1.3595436619       11.9392450000  MEMB      1               0.0000000000
        36         1  CHL1      H11B            3.4922114952       -2.5387139643       12.3788850000  MEMB      1               0.0000000000
        37         1  CHL1      C9              3.8290978508       -0.5201399566       13.1360750000  MEMB      1               0.0000000000
        38         1  CHL1      H9              4.8657490752       -0.8508571975       13.3603650000  MEMB      1               0.0000000000
        39         1  CHL1      C10             3.0680335511       -0.5821753521       14.4701750000  MEMB      1               0.0000000000
        40         1  CHL1      C19             1.5335458885       -0.6743570093       14.3141250000  MEMB      1               0.0000000000
        41         1  CHL1      H19A            0.9305461969       -0.7612422371       15.2431850000  MEMB      1               0.0000000000
        42         1  CHL1      H19B            1.1897799654        0.3025726335       13.9119550000  MEMB      1               0.0000000000
        43         1  CHL1      H19C            1.2010224430       -1.5266841492       13.6838150000  MEMB      1               0.0000000000
        44         1  CHL1      C1              3.6920257173       -1.7930755756       15.1996950000  MEMB      1               0.0000000000
        45         1  CHL1      H1A             3.4168654219       -2.7276694343       14.6657150000  MEMB      1               0.0000000000
        46         1  CHL1      H1B             4.8017639168       -1.8453656389       15.1915750000  MEMB      1               0.0000000000
        47         1  CHL1      C2              3.0551119848       -2.0928239939       16.5940250000  MEMB      1               0.0000000000
        48         1  CHL1      H2A             3.4747846995       -3.0120071755       17.0558650000  MEMB      1               0.0000000000
        49         1  CHL1      H2B             1.9916483159       -2.3544349729       16.4071050000  MEMB      1               0.0000000000
        50         1  CHL1      C20             4.6883593841        0.0143984199        7.4834450000  MEMB      1               0.0000000000
        51         1  CHL1      H20             3.7825858609        0.5937498197        7.2037050000  MEMB      1               0.0000000000
        52         1  CHL1      C21             4.3720767464       -1.5237779790        7.5488150000  MEMB      1               0.0000000000
        53         1  CHL1      H21A            4.3045290325       -1.9356870738        6.5192050000  MEMB      1               0.0000000000
        54         1  CHL1      H21B            3.3899370993       -1.7611155983        8.0107550000  MEMB      1               0.0000000000
        55         1  CHL1      H21C            5.2307672431       -2.0881149854        7.9713050000  MEMB      1               0.0000000000
        56         1  CHL1      C22             5.8165470773        0.4021713424        6.5737650000  MEMB      1               0.0000000000
        57         1  CHL1      H22A            5.9325521176        1.5070247596        6.5866950000  MEMB      1               0.0000000000
        58         1  CHL1      H22B            6.7164926812        0.0323459777        7.1100950000  MEMB      1               0.0000000000
        59         1  CHL1      C23             5.7006116223       -0.1287280537        5.1484650000  MEMB      1               0.0000000000
        60         1  CHL1      H23A            5.8030115197       -1.2329968795        5.2150450000  MEMB      1               0.0000000000
        61         1  CHL1      H23B            4.6767186104        0.0276506533        4.7465750000  MEMB      1               0.0000000000
        62         1  CHL1      C24             6.7550768586        0.4519825267        4.1513350000  MEMB      1               0.0000000000
        63         1  CHL1      H24A            6.6050007250        1.5520918443        4.1120250000  MEMB      1               0.0000000000
        64         1  CHL1      H24B            7.7552333346        0.4137239597        4.6335650000  MEMB      1               0.0000000000
        65         1  CHL1      C25             6.7016628879       -0.1449663970        2.7343250000  MEMB      1               0.0000000000
        66         1  CHL1      H25             6.9411060259       -1.2106842459        2.9373850000  MEMB      1               0.0000000000
        67         1  CHL1      C26             5.3451783109        0.1039807052        2.0714050000  MEMB      1               0.0000000000
        68         1  CHL1      H26A            5.0366280427        1.1684131512        1.9933950000  MEMB      1               0.0000000000
        69         1  CHL1      H26B            5.3317714871       -0.3041170888        1.0381650000  MEMB      1               0.0000000000
        70         1  CHL1      H26C            4.6919980856       -0.4233778809        2.7991250000  MEMB      1               0.0000000000
        71         1  CHL1      C27             7.7082374753        0.5871709536        1.8190950000  MEMB      1               0.0000000000
        72         1  CHL1      H27A            7.7502262696        0.1755973719        0.7879950000  MEMB      1               0.0000000000
        73         1  CHL1      H27B            7.3519755128        1.6306426282        1.6828450000  MEMB      1               0.0000000000
        74         1  CHL1      H27C            8.6670175530        0.6830043064        2.3721650000  MEMB      1               0.0000000000
        75         2  SAPC      N              -5.0345545834       -6.0105318698       19.5906897945  MEMB      2               0.0000000000
        76         2  SAPC      C12            -4.6447842817       -5.4674211436       20.9136935489  MEMB      2               0.0000000000
        77         2  SAPC      H12A           -4.4525118592       -6.3209150561       21.5469228066  MEMB      2               0.0000000000
        78         2  SAPC      H12B           -5.4018830998       -4.8013221940       21.3003632066  MEMB      2               0.0000000000
        79         2  SAPC      C13            -5.2960937985       -4.9791446717       18.4964667056  MEMB      2               0.0000000000
        80         2  SAPC      H13A           -6.1846106588       -4.3950417024       18.6855744375  MEMB      2               0.0000000000
        81         2  SAPC      H13B           -4.4223862306       -4.3795802242       18.2877626142  MEMB      2               0.0000000000
        82         2  SAPC      H13C           -5.4066545940       -5.5838242271       17.6084695063  MEMB      2               0.0000000000
        83         2  SAPC      C14            -3.9827018962       -6.9962217379       19.1001577340  MEMB      2               0.0000000000
        84         2  SAPC      H14A           -3.0282575401       -6.5520773728       18.8589690650  MEMB      2               0.0000000000
        85         2  SAPC      H14B           -3.7258259174       -7.7168082203       19.8625024411  MEMB      2               0.0000000000
        86         2  SAPC      H14C           -4.1935176600       -7.5701951293       18.2099266939  MEMB      2               0.0000000000
        87         2  SAPC      C15            -6.4020640806       -6.6234185471       19.8604977381  MEMB      2               0.0000000000
        88         2  SAPC      H15A           -6.3487502332       -7.5710126730       20.3758836853  MEMB      2               0.0000000000
        89         2  SAPC      H15B           -6.9980969168       -5.9363483595       20.4428027405  MEMB      2               0.0000000000
        90         2  SAPC      H15C           -6.8095855233       -6.7525699852       18.8687082595  MEMB      2               0.0000000000
        91         2  SAPC      C11            -3.3311097423       -4.6937921095       20.9174626261  MEMB      2               0.0000000000
        92         2  SAPC      H11A           -2.4683366202       -5.3050846641       20.5764861403  MEMB      2               0.0000000000
        93         2  SAPC      H11B           -3.1050286602       -4.3719530194       21.9565141165  MEMB      2               0.0000000000
        94         2  SAPC      P              -2.9790432282       -2.1217437589       20.2979850331  MEMB      2               0.0000000000
        95         2  SAPC      O13            -4.0561684156       -1.3498674668       20.9734589013  MEMB      2               0.0000000000
        96         2  SAPC      O14            -1.6004613217       -2.1025272714       20.8103286579  MEMB      2               0.0000000000
        97         2  SAPC      O12            -3.4468636443       -3.5405134255       20.1186937885  MEMB      2               0.0000000000
        98         2  SAPC      O11            -2.9749493154       -1.4258796279       18.9205654756  MEMB      2               0.0000000000
        99         2  SAPC      C1             -2.4611634088       -2.1831839204       17.8586824501  MEMB      2               0.0000000000
       100         2  SAPC      HA             -1.4380265675       -2.5703820022       18.0525628331  MEMB      2               0.0000000000
       101         2  SAPC      HB             -3.1437075642       -3.0305166626       17.6340012698  MEMB      2               0.0000000000
       102         2  SAPC      C2             -2.5068735247       -1.2384855323       16.6350576894  MEMB      2               0.0000000000
       103         2  SAPC      HS             -1.8594553254       -0.3596002889       16.8417734272  MEMB      2               0.0000000000
       104         2  SAPC      O21            -3.8450328942       -0.8691110489       16.3771355941  MEMB      2               0.0000000000
       105         2  SAPC      C21            -4.0727279124        0.0525772161       15.4054253323  MEMB      2               0.0000000000
       106         2  SAPC      O22            -3.3121449987        0.3990186445       14.5612743145  MEMB      2               0.0000000000
       107         2  SAPC      C22            -5.5845841926        0.4407059556       15.4376565653  MEMB      2               0.0000000000
       108         2  SAPC      H2R            -5.6093463414        1.1684406878       16.2767694786  MEMB      2               0.0000000000
       109         2  SAPC      H2S            -5.8895136428        1.1336799359       14.6245602653  MEMB      2               0.0000000000
       110         2  SAPC      C3             -1.8134167765       -1.9367379627       15.4863684004  MEMB      2               0.0000000000
       111         2  SAPC      HX             -0.8537204479       -2.2983050654       15.9136540986  MEMB      2               0.0000000000
       112         2  SAPC      HY             -1.5976530527       -1.3827067798       14.5478501365  MEMB      2               0.0000000000
       113         2  SAPC      O31            -2.6763023868       -3.0988302484       15.1686144085  MEMB      2               0.0000000000
       114         2  SAPC      C31            -2.1808443296       -3.9705007661       14.2185384272  MEMB      2               0.0000000000
       115         2  SAPC      O32            -1.0750962100       -3.9510668399       13.7629516689  MEMB      2               0.0000000000
       116         2  SAPC      C32            -3.2308636793       -4.9585578235       13.8345846866  MEMB      2               0.0000000000
       117         2  SAPC      H2X            -3.8868640871       -4.4821063878       13.0749936768  MEMB      2               0.0000000000
       118         2  SAPC      H2Y            -3.7759969453       -5.4202644668       14.6854538012  MEMB      2               0.0000000000
       119         2  SAPC      C23            -6.5918227268       -0.5991875632       15.8511397080  MEMB      2               0.0000000000
       120         2  SAPC      H3R            -7.4914918252        0.0278492157       16.0293019747  MEMB      2               0.0000000000
       121         2  SAPC      H3S            -6.3084133692       -0.9144731619       16.8780745412  MEMB      2               0.0000000000
       122         2  SAPC      C24            -6.7895827743       -1.8862536809       14.9653743463  MEMB      2               0.0000000000
       123         2  SAPC      H4R            -7.2798871204       -2.6231477268       15.6368726465  MEMB      2               0.0000000000
       124         2  SAPC      H4S            -5.7847050985       -2.2957973725       14.7270132181  MEMB      2               0.0000000000
       125         2  SAPC      C25            -7.5322819892       -1.6351989478       13.6847899987  MEMB      2               0.0000000000
       126         2  SAPC      H5R            -8.2441599252       -0.8007700335       13.7682091711  MEMB      2               0.0000000000
       127         2  SAPC      C26            -7.3257156037       -2.2574754698       12.5509651456  MEMB      2               0.0000000000
       128         2  SAPC      H6R            -7.9992449498       -2.0183482533       11.7147972082  MEMB      2               0.0000000000
       129         2  SAPC      C27            -6.3058788155       -3.3645044645       12.1970596125  MEMB      2               0.0000000000
       130         2  SAPC      H7R            -6.7244301155       -4.3306473755       12.5516066190  MEMB      2               0.0000000000
       131         2  SAPC      H7S            -5.3360300928       -3.1113755020       12.6762674674  MEMB      2               0.0000000000
       132         2  SAPC      C28            -6.1295433608       -3.4347384953       10.6923930600  MEMB      2               0.0000000000
       133         2  SAPC      H8R            -6.6208011503       -4.2863865195       10.1990764060  MEMB      2               0.0000000000
       134         2  SAPC      C29            -5.3757258628       -2.5327723296        9.9956648454  MEMB      2               0.0000000000
       135         2  SAPC      H9R            -5.1079327948       -2.8069228874        8.9645838818  MEMB      2               0.0000000000
       136         2  SAPC      C210           -4.6846834533       -1.3645250077       10.5982425334  MEMB      2               0.0000000000
       137         2  SAPC      H10R           -5.1937243408       -0.9406993134       11.4901902322  MEMB      2               0.0000000000
       138         2  SAPC      H10S           -4.7096417822       -0.4929537429        9.9097214029  MEMB      2               0.0000000000
       139         2  SAPC      C211           -3.2163653686       -1.7569060997       11.0579949439  MEMB      2               0.0000000000
       140         2  SAPC      H11R           -3.0389572356       -1.8042425086       12.1425623243  MEMB      2               0.0000000000
       141         2  SAPC      C212           -2.1475048406       -1.9305330573       10.2485412844  MEMB      2               0.0000000000
       142         2  SAPC      H12R           -1.1452642406       -2.0127770991       10.6943548261  MEMB      2               0.0000000000
       143         2  SAPC      C213           -2.1880142742       -1.7255753909        8.7445158392  MEMB      2               0.0000000000
       144         2  SAPC      H13R           -3.0585273997       -2.2231677947        8.2660498638  MEMB      2               0.0000000000
       145         2  SAPC      H13S           -1.2292813691       -2.1078253228        8.3333752556  MEMB      2               0.0000000000
       146         2  SAPC      C214           -2.0913742601       -0.2008811934        8.4124648317  MEMB      2               0.0000000000
       147         2  SAPC      H14R           -1.3516424681        0.3899534380        8.9725639384  MEMB      2               0.0000000000
       148         2  SAPC      C215           -2.7657362785        0.4288323644        7.4416127240  MEMB      2               0.0000000000
       149         2  SAPC      H15R           -2.7128677083        1.5242400660        7.3562530564  MEMB      2               0.0000000000
       150         2  SAPC      C216           -3.7340577826       -0.0945138480        6.4784661793  MEMB      2               0.0000000000
       151         2  SAPC      H16R           -4.6423052288        0.5417175291        6.5464133787  MEMB      2               0.0000000000
       152         2  SAPC      H16S           -4.0179844676       -1.1604314329        6.6108524876  MEMB      2               0.0000000000
       153         2  SAPC      C217           -3.2653571716        0.0491404121        4.9808421555  MEMB      2               0.0000000000
       154         2  SAPC      H17R           -2.8939094586        1.0873514838        4.8449569383  MEMB      2               0.0000000000
       155         2  SAPC      H17S           -4.2158674114       -0.1182517478        4.4305410719  MEMB      2               0.0000000000
       156         2  SAPC      C218           -2.2581492002       -0.9616432175        4.4483981600  MEMB      2               0.0000000000
       157         2  SAPC      H18R           -2.5548031782       -1.9926578376        4.7370609870  MEMB      2               0.0000000000
       158         2  SAPC      H18S           -1.3745683045       -0.7241073988        5.0786225178  MEMB      2               0.0000000000
       159         2  SAPC      C219           -2.0724254157       -0.8686819797        2.9140975014  MEMB      2               0.0000000000
       160         2  SAPC      H19R           -1.1709550405       -1.4861525392        2.7130935054  MEMB      2               0.0000000000
       161         2  SAPC      H19S           -1.6836646036        0.1338739797        2.6346929534  MEMB      2               0.0000000000
       162         2  SAPC      C220           -3.2623167315       -1.0579856284        1.9406973959  MEMB      2               0.0000000000
       163         2  SAPC      H20R           -3.5288297883       -0.0752617510        1.4962370266  MEMB      2               0.0000000000
       164         2  SAPC      H20S           -4.0751345928       -1.7081467079        2.3292049609  MEMB      2               0.0000000000
       165         2  SAPC      H20T           -2.8151230830       -1.6883730344        1.1426060014  MEMB      2               0.0000000000
       166         2  SAPC      C33            -2.7059289857       -6.1522639920       13.0578809325  MEMB      2               0.0000000000
       167         2  SAPC      H3X            -2.0267325660       -6.6910853364       13.7526364784  MEMB      2               0.0000000000
       168         2  SAPC      H3Y            -2.1366944059       -5.7544136005       12.1906974188  MEMB      2               0.0000000000
       169         2  SAPC      C34            -3.7313878026       -7.1391189343       12.6721627404  MEMB      2               0.0000000000
       170         2  SAPC      H4X            -4.5067362220       -7.1572119657       13.4676676395  MEMB      2               0.0000000000
       171         2  SAPC      H4Y            -3.3847318956       -8.1774510290       12.4823804632  MEMB      2               0.0000000000
       172         2  SAPC      C35            -4.5093044143       -6.7166231690       11.3845544540  MEMB      2               0.0000000000
       173         2  SAPC      H5X            -3.8063891467       -6.8140967677       10.5297269813  MEMB      2               0.0000000000
       174         2  SAPC      H5Y            -4.9061116335       -5.6794147294       11.3519436049  MEMB      2               0.0000000000
       175         2  SAPC      C36            -5.7876738597       -7.5831274239       11.0942874252  MEMB      2               0.0000000000
       176         2  SAPC      H6X            -6.6372809658       -7.2917375568       11.7481834056  MEMB      2               0.0000000000
       177         2  SAPC      H6Y            -5.4820416238       -8.6070152237       11.3985303406  MEMB      2               0.0000000000
       178         2  SAPC      C37            -6.1422684494       -7.8982941074        9.6018735235  MEMB      2               0.0000000000
       179         2  SAPC      H7X            -6.9948256135       -8.6106065958        9.6107099156  MEMB      2               0.0000000000
       180         2  SAPC      H7Y            -5.3272626567       -8.3830177952        9.0229700019  MEMB      2               0.0000000000
       181         2  SAPC      C38            -6.6804178514       -6.6269090350        8.8679004529  MEMB      2               0.0000000000
       182         2  SAPC      H8X            -5.9446714944       -5.7988101656        8.9530494021  MEMB      2               0.0000000000
       183         2  SAPC      H8Y            -7.6220705950       -6.3406300312        9.3833192096  MEMB      2               0.0000000000
       184         2  SAPC      C39            -6.7905502637       -6.9673026932        7.3903833467  MEMB      2               0.0000000000
       185         2  SAPC      H9X            -7.3205350110       -6.1347675853        6.8801656740  MEMB      2               0.0000000000
       186         2  SAPC      H9Y            -7.5460046901       -7.7815178685        7.3646245277  MEMB      2               0.0000000000
       187         2  SAPC      C310           -5.6072503569       -7.2578310840        6.4634918094  MEMB      2               0.0000000000
       188         2  SAPC      H10X           -5.8313241191       -7.5493514860        5.4150992507  MEMB      2               0.0000000000
       189         2  SAPC      H10Y           -5.0356362645       -8.1178787161        6.8732438679  MEMB      2               0.0000000000
       190         2  SAPC      C311           -4.6437081366       -6.1212952269        6.3850166758  MEMB      2               0.0000000000
       191         2  SAPC      H11X           -4.2099258636       -5.9683476954        7.3963329924  MEMB      2               0.0000000000
       192         2  SAPC      H11Y           -4.9256152021       -5.1398703859        5.9472328297  MEMB      2               0.0000000000
       193         2  SAPC      C312           -3.4964721866       -6.3291048811        5.2971860910  MEMB      2               0.0000000000
       194         2  SAPC      H12X           -2.8666898251       -7.2110732679        5.5417811590  MEMB      2               0.0000000000
       195         2  SAPC      H12Y           -2.7993203517       -5.4661963345        5.3579249819  MEMB      2               0.0000000000
       196         2  SAPC      C313           -4.0295047603       -6.5965257879        3.8170641371  MEMB      2               0.0000000000
       197         2  SAPC      H13X           -4.7814558881       -5.8176179176        3.5676782915  MEMB      2               0.0000000000
       198         2  SAPC      H13Y           -4.5453346350       -7.5781732421        3.7491746956  MEMB      2               0.0000000000
       199         2  SAPC      C314           -2.8630478177       -6.5144398215        2.8500418785  MEMB      2               0.0000000000
       200         2  SAPC      H14X           -3.0927644275       -7.0361004408        1.8964055393  MEMB      2               0.0000000000
       201         2  SAPC      H14Y           -1.9564250377       -7.0189221760        3.2473504029  MEMB      2               0.0000000000
       202         2  SAPC      C315           -2.4943539208       -5.0112004544        2.5652114324  MEMB      2               0.0000000000
       203         2  SAPC      H15X           -2.1863952551       -4.5094300285        3.5073951661  MEMB      2               0.0000000000
       204         2  SAPC      H15Y           -3.4080850224       -4.4299004989        2.3172062554  MEMB      2               0.0000000000
       205         2  SAPC      C316           -1.3198296343       -4.8221008349        1.5680617117  MEMB      2               0.0000000000
       206         2  SAPC      H16X           -0.4305064192       -5.2536917673        2.0751650506  MEMB      2               0.0000000000
       207         2  SAPC      H16Y           -1.1882936093       -3.7307409043        1.4069636138  MEMB      2               0.0000000000
       208         2  SAPC      C317           -1.5152831755       -5.4643779038        0.2177148266  MEMB      2               0.0000000000
       209         2  SAPC      H17X           -1.9545709191       -6.4701190200        0.3904334226  MEMB      2               0.0000000000
       210         2  SAPC      H17Y           -0.5479436451       -5.6203021060       -0.3059876582  MEMB      2               0.0000000000
       211         2  SAPC      C318           -2.5751724297       -4.8459791230       -0.7857943698  MEMB      2               0.0000000000
       212         2  SAPC      H18X           -3.4846821399       -4.4430528885       -0.2910583118  MEMB      2               0.0000000000
       213         2  SAPC      H18Y           -2.8849188214       -5.6224048661       -1.5176006998  MEMB      2               0.0000000000
       214         2  SAPC      H18Z           -1.9287978749       -4.0326016146       -1.1794158712  MEMB      2               0.0000000000
       215         3  SLPC      N              -4.0489221479        7.5989227773       16.4703879831  MEMB      3               0.0000000000
       216         3  SLPC      C13            -4.9922838201        6.4916171325       15.9455126087  MEMB      3               0.0000000000
       217         3  SLPC      H13A           -5.9596517231        6.6350935010       16.4037856979  MEMB      3               0.0000000000
       218         3  SLPC      H13B           -4.8812368121        6.3917950571       14.8758845535  MEMB      3               0.0000000000
       219         3  SLPC      H13C           -4.6088740319        5.5724885328       16.3633636468  MEMB      3               0.0000000000
       220         3  SLPC      C14            -4.0034716597        7.6403725173       17.9344370120  MEMB      3               0.0000000000
       221         3  SLPC      H14A           -4.8545432278        8.1447782589       18.3676251573  MEMB      3               0.0000000000
       222         3  SLPC      H14B           -4.0405864970        6.6839307265       18.4346785701  MEMB      3               0.0000000000
       223         3  SLPC      H14C           -3.1686101533        8.2382287328       18.2690628047  MEMB      3               0.0000000000
       224         3  SLPC      C15            -4.5510746573        8.9879395592       16.0591316045  MEMB      3               0.0000000000
       225         3  SLPC      H15A           -3.8911394953        9.8295405284       16.2094431798  MEMB      3               0.0000000000
       226         3  SLPC      H15B           -4.7536224678        8.9512641897       14.9989291217  MEMB      3               0.0000000000
       227         3  SLPC      H15C           -5.4504557084        9.2497652679       16.5966825887  MEMB      3               0.0000000000
       228         3  SLPC      C12            -2.6143687258        7.3495548967       15.9265095302  MEMB      3               0.0000000000
       229         3  SLPC      H12A           -2.0519619842        8.2715195480       15.9354440388  MEMB      3               0.0000000000
       230         3  SLPC      H12B           -2.8013028989        6.9589202587       14.9371360012  MEMB      3               0.0000000000
       231         3  SLPC      C11            -1.6892885146        6.3162802170       16.6245515958  MEMB      3               0.0000000000
       232         3  SLPC      H11A           -1.2265571245        6.7262534829       17.5476564637  MEMB      3               0.0000000000
       233         3  SLPC      H11B           -0.9545292314        6.0119682307       15.8487655457  MEMB      3               0.0000000000
       234         3  SLPC      P              -1.7567776037        3.8988243376       17.6054099173  MEMB      3               0.0000000000
       235         3  SLPC      O13            -0.9426274393        3.3912031029       16.4871275965  MEMB      3               0.0000000000
       236         3  SLPC      O14            -1.0766170248        4.2126600385       18.8822569620  MEMB      3               0.0000000000
       237         3  SLPC      O12            -2.4775028236        5.2009178935       17.0501212213  MEMB      3               0.0000000000
       238         3  SLPC      O11            -2.9653470813        2.9012612135       18.0145539651  MEMB      3               0.0000000000
       239         3  SLPC      C1             -4.3318642916        3.3584941298       17.9999207969  MEMB      3               0.0000000000
       240         3  SLPC      HA             -4.8379542587        3.0329921677       18.9338599954  MEMB      3               0.0000000000
       241         3  SLPC      HB             -4.4670231175        4.4612154299       17.9922596956  MEMB      3               0.0000000000
       242         3  SLPC      C2             -5.1343593970        2.6791717783       16.7934376647  MEMB      3               0.0000000000
       243         3  SLPC      HS             -5.3509946133        1.6186482260       17.0437965762  MEMB      3               0.0000000000
       244         3  SLPC      O21            -4.3791576477        2.8542063266       15.5659991614  MEMB      3               0.0000000000
       245         3  SLPC      C21            -3.8944458759        1.7480633290       14.9639429016  MEMB      3               0.0000000000
       246         3  SLPC      O22            -4.1093905420        0.5454838277       15.3324769149  MEMB      3               0.0000000000
       247         3  SLPC      C22            -3.1050451650        2.1193966459       13.6799545300  MEMB      3               0.0000000000
       248         3  SLPC      H2R            -2.0341817942        2.2217946923       13.9576007569  MEMB      3               0.0000000000
       249         3  SLPC      H2S            -3.1441966396        1.2620350401       12.9744623647  MEMB      3               0.0000000000
       250         3  SLPC      C3             -6.5905274607        3.2568610244       16.5123600423  MEMB      3               0.0000000000
       251         3  SLPC      HX             -6.5267698798        4.3494953872       16.3215560053  MEMB      3               0.0000000000
       252         3  SLPC      HY             -7.2944587342        3.0430656893       17.3448823159  MEMB      3               0.0000000000
       253         3  SLPC      O31            -7.2444246339        2.7106943201       15.3737911306  MEMB      3               0.0000000000
       254         3  SLPC      C31            -7.4697938077        3.4537058646       14.2414783357  MEMB      3               0.0000000000
       255         3  SLPC      O32            -6.9748474123        4.5807940085       14.0933421156  MEMB      3               0.0000000000
       256         3  SLPC      C32            -8.2495820949        2.6892917023       13.2305591861  MEMB      3               0.0000000000
       257         3  SLPC      H2X            -9.2489703243        3.1556223501       13.0960967387  MEMB      3               0.0000000000
       258         3  SLPC      H2Y            -8.2760669571        1.6559422256       13.6377553750  MEMB      3               0.0000000000
       259         3  SLPC      C23            -3.7029263183        3.4103033079       12.9962083601  MEMB      3               0.0000000000
       260         3  SLPC      H3R            -3.8062569410        4.1820792656       13.7886762426  MEMB      3               0.0000000000
       261         3  SLPC      H3S            -4.7925307527        3.2033658607       12.9309377491  MEMB      3               0.0000000000
       262         3  SLPC      C24            -3.0439343337        4.1237029250       11.8212729201  MEMB      3               0.0000000000
       263         3  SLPC      H4R            -3.2578095002        3.4251061808       10.9842897401  MEMB      3               0.0000000000
       264         3  SLPC      H4S            -1.9333945840        4.1376367258       11.8500555538  MEMB      3               0.0000000000
       265         3  SLPC      C25            -3.4008732636        5.5644523926       11.5490275010  MEMB      3               0.0000000000
       266         3  SLPC      H5R            -2.6632147016        5.9801716070       10.8297508899  MEMB      3               0.0000000000
       267         3  SLPC      H5S            -3.2647035746        6.0976595901       12.5141536243  MEMB      3               0.0000000000
       268         3  SLPC      C26            -4.8245287446        5.8353893258       11.0443044238  MEMB      3               0.0000000000
       269         3  SLPC      H6R            -4.9353549889        6.9400656787       11.0027262646  MEMB      3               0.0000000000
       270         3  SLPC      H6S            -5.5760839355        5.4883266724       11.7852723921  MEMB      3               0.0000000000
       271         3  SLPC      C27            -5.0330068932        5.2155278950        9.5654748421  MEMB      3               0.0000000000
       272         3  SLPC      H7R            -5.1122430413        4.1075461527        9.5859437323  MEMB      3               0.0000000000
       273         3  SLPC      H7S            -4.1403707195        5.5011304429        8.9688570274  MEMB      3               0.0000000000
       274         3  SLPC      C28            -6.2651587077        5.6079273115        8.7395203417  MEMB      3               0.0000000000
       275         3  SLPC      H8R            -7.1105096563        5.4880614692        9.4503899780  MEMB      3               0.0000000000
       276         3  SLPC      H8S            -6.4306515319        4.9702567759        7.8449206576  MEMB      3               0.0000000000
       277         3  SLPC      C29            -6.2367959619        7.0642327001        8.4000671560  MEMB      3               0.0000000000
       278         3  SLPC      H9R            -6.4259562356        7.7898855400        9.2048322289  MEMB      3               0.0000000000
       279         3  SLPC      C210           -5.9462746971        7.6576313345        7.2197058233  MEMB      3               0.0000000000
       280         3  SLPC      H10R           -6.0212327730        8.7550632053        7.2147721010  MEMB      3               0.0000000000
       281         3  SLPC      C211           -5.6259621881        7.0071146331        5.9529409878  MEMB      3               0.0000000000
       282         3  SLPC      H11R           -5.2504412552        5.9971030041        6.2234623074  MEMB      3               0.0000000000
       283         3  SLPC      H11S           -4.8075564287        7.6470390603        5.5592031413  MEMB      3               0.0000000000
       284         3  SLPC      C212           -6.8159288704        6.8318309295        5.0490652541  MEMB      3               0.0000000000
       285         3  SLPC      H12R           -7.6218039657        6.1325721133        5.3166517415  MEMB      3               0.0000000000
       286         3  SLPC      C213           -7.0702100288        7.6150878320        3.9464422894  MEMB      3               0.0000000000
       287         3  SLPC      H13R           -8.0693974623        7.5336053749        3.4936894534  MEMB      3               0.0000000000
       288         3  SLPC      C214           -6.2464315476        8.7628413035        3.3282006621  MEMB      3               0.0000000000
       289         3  SLPC      H14R           -5.8438017400        9.3824105493        4.1578662370  MEMB      3               0.0000000000
       290         3  SLPC      H14S           -6.9293781790        9.3232717856        2.6545373061  MEMB      3               0.0000000000
       291         3  SLPC      C215           -4.8987444956        8.4025488584        2.6272485768  MEMB      3               0.0000000000
       292         3  SLPC      H15R           -4.2585675173        7.7592903230        3.2681174338  MEMB      3               0.0000000000
       293         3  SLPC      H15S           -4.4436708841        9.3150343164        2.1861144828  MEMB      3               0.0000000000
       294         3  SLPC      C216           -5.2362400862        7.4362260651        1.4717912404  MEMB      3               0.0000000000
       295         3  SLPC      H16R           -5.8585590993        8.0687526466        0.8032486404  MEMB      3               0.0000000000
       296         3  SLPC      H16S           -5.8011060459        6.4847918961        1.5718957199  MEMB      3               0.0000000000
       297         3  SLPC      C217           -4.0327083870        7.3259507930        0.5787952267  MEMB      3               0.0000000000
       298         3  SLPC      H17R           -3.4783065202        6.4888606644        1.0544406137  MEMB      3               0.0000000000
       299         3  SLPC      H17S           -3.3364917389        8.1913111479        0.6062754371  MEMB      3               0.0000000000
       300         3  SLPC      C218           -4.3227760422        7.0124780357       -0.9144553344  MEMB      3               0.0000000000
       301         3  SLPC      H18R           -4.5927708141        5.9639047867       -1.1632875552  MEMB      3               0.0000000000
       302         3  SLPC      H18S           -3.4117451367        7.2072813187       -1.5197616339  MEMB      3               0.0000000000
       303         3  SLPC      H18T           -5.1061496412        7.6761986212       -1.3388635581  MEMB      3               0.0000000000
       304         3  SLPC      C33            -7.5611845146        2.6122322229       11.8507521551  MEMB      3               0.0000000000
       305         3  SLPC      H3X            -6.5565064490        2.1629152774       12.0025987765  MEMB      3               0.0000000000
       306         3  SLPC      H3Y            -7.3957858966        3.6515285077       11.4946238911  MEMB      3               0.0000000000
       307         3  SLPC      C34            -8.2851675227        1.8832320757       10.7872849279  MEMB      3               0.0000000000
       308         3  SLPC      H4X            -9.2834822605        2.3153732804       10.5615803864  MEMB      3               0.0000000000
       309         3  SLPC      H4Y            -8.4344614026        0.8814221415       11.2438034137  MEMB      3               0.0000000000
       310         3  SLPC      C35            -7.5288492497        1.8286385000        9.4909386845  MEMB      3               0.0000000000
       311         3  SLPC      H5X            -7.4198972148        2.9043746592        9.2355134824  MEMB      3               0.0000000000
       312         3  SLPC      H5Y            -7.9480833853        1.2838930890        8.6181178542  MEMB      3               0.0000000000
       313         3  SLPC      C36            -6.0597894796        1.3546977515        9.6750923141  MEMB      3               0.0000000000
       314         3  SLPC      H6X            -6.0412253489        0.3970714634       10.2380555374  MEMB      3               0.0000000000
       315         3  SLPC      H6Y            -5.5808062391        2.1501666245       10.2851125574  MEMB      3               0.0000000000
       316         3  SLPC      C37            -5.3036582103        1.1826086616        8.3867622303  MEMB      3               0.0000000000
       317         3  SLPC      H7X            -5.7010734128        0.2962447254        7.8475568551  MEMB      3               0.0000000000
       318         3  SLPC      H7Y            -4.2204603409        0.9671327337        8.5074814623  MEMB      3               0.0000000000
       319         3  SLPC      C38            -5.3767408390        2.2467772809        7.3068915785  MEMB      3               0.0000000000
       320         3  SLPC      H8X            -4.9279201198        3.2222876382        7.5919533906  MEMB      3               0.0000000000
       321         3  SLPC      H8Y            -6.4588264479        2.3507585977        7.0775449305  MEMB      3               0.0000000000
       322         3  SLPC      C39            -4.6659000800        1.8752331211        6.0091229628  MEMB      3               0.0000000000
       323         3  SLPC      H9X            -5.2285737594        1.0267317776        5.5644147040  MEMB      3               0.0000000000
       324         3  SLPC      H9Y            -3.6865066792        1.3695673146        6.1484490352  MEMB      3               0.0000000000
       325         3  SLPC      C310           -4.5773819842        3.1010421530        5.1983783672  MEMB      3               0.0000000000
       326         3  SLPC      H10X           -3.6293376130        3.6112266173        5.4726861480  MEMB      3               0.0000000000
       327         3  SLPC      H10Y           -5.3954258967        3.7886813255        5.5021504485  MEMB      3               0.0000000000
       328         3  SLPC      C311           -4.4354500378        2.8839098392        3.6873805415  MEMB      3               0.0000000000
       329         3  SLPC      H11X           -5.4583479720        2.7251577587        3.2838974622  MEMB      3               0.0000000000
       330         3  SLPC      H11Y           -3.9808795810        1.8769718661        3.5700670125  MEMB      3               0.0000000000
       331         3  SLPC      C312           -3.9184948190        4.1181646501        2.9839759289  MEMB      3               0.0000000000
       332         3  SLPC      H12X           -3.1934809003        4.6951226578        3.5969972968  MEMB      3               0.0000000000
       333         3  SLPC      H12Y           -4.6719156780        4.9082543259        2.7779744905  MEMB      3               0.0000000000
       334         3  SLPC      C313           -3.3462909073        3.6836724025        1.6165477894  MEMB      3               0.0000000000
       335         3  SLPC      H13X           -2.6011833283        2.8814953199        1.8053543567  MEMB      3               0.0000000000
       336         3  SLPC      H13Y           -2.8151537692        4.4854270353        1.0603068858  MEMB      3               0.0000000000
       337         3  SLPC      C314           -4.4389156317        3.1848212318        0.6387169490  MEMB      3               0.0000000000
       338         3  SLPC      H14X           -5.3107035511        3.8725607990        0.6750650416  MEMB      3               0.0000000000
       339         3  SLPC      H14Y           -4.8664574570        2.2124323148        0.9642763981  MEMB      3               0.0000000000
       340         3  SLPC      C315           -4.0074143041        3.1733679862       -0.8195424181  MEMB      3               0.0000000000
       341         3  SLPC      H15X           -3.5016943091        4.1383825536       -1.0370629028  MEMB      3               0.0000000000
       342         3  SLPC      H15Y           -4.8301525606        3.1549045838       -1.5659210655  MEMB      3               0.0000000000
       343         3  SLPC      C316           -2.8557901089        2.2226808983       -1.2770977145  MEMB      3               0.0000000000
       344         3  SLPC      H16X           -3.0063954625        1.1360806486       -1.1012030375  MEMB      3               0.0000000000
       345         3  SLPC      H16Y           -1.9172976168        2.3521224011       -0.6967531530  MEMB      3               0.0000000000
       346         3  SLPC      C317           -2.4348448732        2.5728256642       -2.7927284447  MEMB      3               0.0000000000
       347         3  SLPC      H17X           -3.3892090239        2.5223050364       -3.3592600499  MEMB      3               0.0000000000
       348         3  SLPC      H17Y           -1.8015534554        1.7031262464       -3.0700117222  MEMB      3               0.0000000000
       349         3  SLPC      C318           -1.7386394337        3.9307505151       -2.9459680646  MEMB      3               0.0000000000
       350         3  SLPC      H18X           -2.5894511362        4.6410754340       -3.0226391841  MEMB      3               0.0000000000
       351         3  SLPC      H18Y           -1.1467367906        3.9915840254       -3.8841954230  MEMB      3               0.0000000000
       352         3  SLPC      H18Z           -1.0626315880        4.2343864644       -2.1182353128  MEMB      3               0.0000000000
       353         4  SAPS      N               3.0883305585        7.6321531800       20.7048512154  MEMB      4               0.0000000000
       354         4  SAPS      HN1             2.9553284427        8.2053992809       19.8473552236  MEMB      4               0.0000000000
       355         4  SAPS      HN2             2.1815833048        7.4971196432       21.1959470822  MEMB      4               0.0000000000
       356         4  SAPS      HN3             3.5912121309        8.1909549713       21.4234962795  MEMB      4               0.0000000000
       357         4  SAPS      C12             3.6044963844        6.3107633593       20.3101165416  MEMB      4               0.0000000000
       358         4  SAPS      H12A            3.6385755369        5.8448153711       21.2838367519  MEMB      4               0.0000000000
       359         4  SAPS      C13             2.6510897528        5.4725153365       19.4044770859  MEMB      4               0.0000000000
       360         4  SAPS      O13A            1.4149078184        5.8463930439       19.4428361571  MEMB      4               0.0000000000
       361         4  SAPS      O13B            2.8951216781        4.2350020545       19.1973179320  MEMB      4               0.0000000000
       362         4  SAPS      C11             5.1272111651        6.3887608635       19.6575703347  MEMB      4               0.0000000000
       363         4  SAPS      H11A            5.1822542942        7.0037920148       18.7339752317  MEMB      4               0.0000000000
       364         4  SAPS      H11B            5.5201091597        5.4009311629       19.3348558336  MEMB      4               0.0000000000
       365         4  SAPS      P               7.0221022739        8.0938018700       20.3240179684  MEMB      4               0.0000000000
       366         4  SAPS      O13             6.2179161598        9.3359782582       20.2985157601  MEMB      4               0.0000000000
       367         4  SAPS      O14             8.2000404141        8.0698706460       21.1991200163  MEMB      4               0.0000000000
       368         4  SAPS      O12             6.0877384611        6.8623350274       20.6442124569  MEMB      4               0.0000000000
       369         4  SAPS      O11             7.4571732682        7.7381172755       18.8169645483  MEMB      4               0.0000000000
       370         4  SAPS      C1              8.7512687708        7.2533155799       18.4136412710  MEMB      4               0.0000000000
       371         4  SAPS      HA              9.4941999217        7.7991259564       19.0336936706  MEMB      4               0.0000000000
       372         4  SAPS      HB              8.6822787227        6.1580214302       18.5865347023  MEMB      4               0.0000000000
       373         4  SAPS      C2              8.8945722451        7.4913416180       16.9158826003  MEMB      4               0.0000000000
       374         4  SAPS      HS              9.9791340844        7.6818733887       16.7684248554  MEMB      4               0.0000000000
       375         4  SAPS      O21             7.9601750214        8.5034908443       16.4926350791  MEMB      4               0.0000000000
       376         4  SAPS      C21             8.1468605626        8.7821670436       15.2187960975  MEMB      4               0.0000000000
       377         4  SAPS      O22             9.0561097643        8.3858157621       14.5397085712  MEMB      4               0.0000000000
       378         4  SAPS      C22             7.0448965480        9.6878850381       14.7222733978  MEMB      4               0.0000000000
       379         4  SAPS      H2R             6.3800512284        9.0407151129       14.1111491708  MEMB      4               0.0000000000
       380         4  SAPS      H2S             6.4816893694       10.1821838541       15.5425092786  MEMB      4               0.0000000000
       381         4  SAPS      C3              8.5699613486        6.1502937395       16.2456126877  MEMB      4               0.0000000000
       382         4  SAPS      HX              9.0471917119        5.2563612504       16.7010867415  MEMB      4               0.0000000000
       383         4  SAPS      HY              8.9344369933        6.2110287881       15.1978581467  MEMB      4               0.0000000000
       384         4  SAPS      O31             7.1647721297        5.8875465535       16.3107034209  MEMB      4               0.0000000000
       385         4  SAPS      C31             6.7441432192        4.8384239013       15.6439436314  MEMB      4               0.0000000000
       386         4  SAPS      O32             7.4637514374        4.0708474919       14.9946746405  MEMB      4               0.0000000000
       387         4  SAPS      C32             5.2067537715        4.8014061214       15.6393053802  MEMB      4               0.0000000000
       388         4  SAPS      H2X             4.7658910110        5.4247278884       16.4464178849  MEMB      4               0.0000000000
       389         4  SAPS      H2Y             4.7335454479        3.7962286918       15.6429861410  MEMB      4               0.0000000000
       390         4  SAPS      C23             7.6726221501       10.7368410383       13.7071845698  MEMB      4               0.0000000000
       391         4  SAPS      H3R             8.3106062998       10.2641974479       12.9300710596  MEMB      4               0.0000000000
       392         4  SAPS      H3S             8.2961314822       11.4198682611       14.3228390206  MEMB      4               0.0000000000
       393         4  SAPS      C24             6.5944502398       11.5217330122       12.8200084025  MEMB      4               0.0000000000
       394         4  SAPS      H4R             5.8636451861       11.9277485716       13.5517162372  MEMB      4               0.0000000000
       395         4  SAPS      H4S             6.0914448194       10.8151378086       12.1257248026  MEMB      4               0.0000000000
       396         4  SAPS      C25             7.2668920599       12.5055957343       11.9697711686  MEMB      4               0.0000000000
       397         4  SAPS      H5R             7.1713242257       13.5611215642       12.2642734319  MEMB      4               0.0000000000
       398         4  SAPS      C26             7.9151219522       12.1703543342       10.8441460663  MEMB      4               0.0000000000
       399         4  SAPS      H6R             8.3220118062       13.0355719252       10.3002358437  MEMB      4               0.0000000000
       400         4  SAPS      C27             8.1427268901       10.7982036662       10.2606176214  MEMB      4               0.0000000000
       401         4  SAPS      H7R             7.5987677040       10.8911975594        9.2963656357  MEMB      4               0.0000000000
       402         4  SAPS      H7S             7.6483624876       10.0164383943       10.8760586186  MEMB      4               0.0000000000
       403         4  SAPS      C28             9.5442621453       10.3800621792        9.9954033990  MEMB      4               0.0000000000
       404         4  SAPS      H8R             9.9616167116        9.6653646420       10.7199879637  MEMB      4               0.0000000000
       405         4  SAPS      C29            10.3681090911       10.8984447560        9.0104661292  MEMB      4               0.0000000000
       406         4  SAPS      H9R            11.3580242295       10.4309183646        8.9032865207  MEMB      4               0.0000000000
       407         4  SAPS      C210            9.9936752435       11.9691372387        7.9626084474  MEMB      4               0.0000000000
       408         4  SAPS      H10R           10.6268292692       12.8690330474        8.1163117504  MEMB      4               0.0000000000
       409         4  SAPS      H10S            8.9231976455       12.2632825539        8.0059360049  MEMB      4               0.0000000000
       410         4  SAPS      C211           10.2868897782       11.5328277134        6.5160627851  MEMB      4               0.0000000000
       411         4  SAPS      H11R           11.2608097771       11.8589412560        6.1221979987  MEMB      4               0.0000000000
       412         4  SAPS      C212            9.4904805846       10.8925388018        5.7246269868  MEMB      4               0.0000000000
       413         4  SAPS      H12R            9.8702577281       10.7472132420        4.7025457147  MEMB      4               0.0000000000
       414         4  SAPS      C213            8.0571565382       10.3059021511        5.9270348393  MEMB      4               0.0000000000
       415         4  SAPS      H13R            7.8484846681        9.9388555809        6.9546799627  MEMB      4               0.0000000000
       416         4  SAPS      H13S            7.8501477621        9.4762534506        5.2177033917  MEMB      4               0.0000000000
       417         4  SAPS      C214            7.0029254629       11.4334769024        5.6666375890  MEMB      4               0.0000000000
       418         4  SAPS      H14R            6.6773348485       11.9409541810        6.5866697503  MEMB      4               0.0000000000
       419         4  SAPS      C215            6.5253535114       11.7176080907        4.4102810834  MEMB      4               0.0000000000
       420         4  SAPS      H15R            5.7982803555       12.5413759407        4.4629244088  MEMB      4               0.0000000000
       421         4  SAPS      C216            6.7869840894       11.0746170673        3.0035577394  MEMB      4               0.0000000000
       422         4  SAPS      H16R            5.8032788112       10.8422189315        2.5424327214  MEMB      4               0.0000000000
       423         4  SAPS      H16S            7.2958337308       10.0919736297        3.1025777471  MEMB      4               0.0000000000
       424         4  SAPS      C217            7.5758968726       11.9639517659        2.0202635606  MEMB      4               0.0000000000
       425         4  SAPS      H17R            8.5611676317       12.0396858653        2.5280298238  MEMB      4               0.0000000000
       426         4  SAPS      H17S            7.0248509877       12.9255468944        1.9427728818  MEMB      4               0.0000000000
       427         4  SAPS      C218            7.6995084068       11.4009334351        0.6016768337  MEMB      4               0.0000000000
       428         4  SAPS      H18R            8.0610130321       10.3534195175        0.6813645045  MEMB      4               0.0000000000
       429         4  SAPS      H18S            8.4376851144       12.0521236206        0.0865381653  MEMB      4               0.0000000000
       430         4  SAPS      C219            6.4610163794       11.4842201436       -0.3124114905  MEMB      4               0.0000000000
       431         4  SAPS      H19R            6.1668623003       12.5515264500       -0.2193983565  MEMB      4               0.0000000000
       432         4  SAPS      H19S            5.6907527184       10.7863541239        0.0800148571  MEMB      4               0.0000000000
       433         4  SAPS      C220            6.4410400244       11.0373012808       -1.7777742910  MEMB      4               0.0000000000
       434         4  SAPS      H20R            6.6556998968        9.9497118836       -1.8512002820  MEMB      4               0.0000000000
       435         4  SAPS      H20S            7.2484768899       11.6045081111       -2.2883060752  MEMB      4               0.0000000000
       436         4  SAPS      H20T            5.4148638390       11.1917677250       -2.1745408248  MEMB      4               0.0000000000
       437         4  SAPS      C33             4.7668477917        5.6183472913       14.3854601937  MEMB      4               0.0000000000
       438         4  SAPS      H3X             5.1467019815        5.1307884806       13.4622494097  MEMB      4               0.0000000000
       439         4  SAPS      H3Y             5.3017896557        6.5909022690       14.4333654263  MEMB      4               0.0000000000
       440         4  SAPS      C34             3.2503499384        5.9505226589       14.2995253304  MEMB      4               0.0000000000
       441         4  SAPS      H4X             2.9168594145        6.4042646096       15.2572430496  MEMB      4               0.0000000000
       442         4  SAPS      H4Y             2.6190410445        5.0571275297       14.1055782457  MEMB      4               0.0000000000
       443         4  SAPS      C35             3.0039264490        6.9831777714       13.1304038183  MEMB      4               0.0000000000
       444         4  SAPS      H5X             3.4228590795        7.9739594958       13.4081952789  MEMB      4               0.0000000000
       445         4  SAPS      H5Y             1.9172335087        7.1963115160       13.0409963341  MEMB      4               0.0000000000
       446         4  SAPS      C36             3.5136107862        6.5125511653       11.8003702312  MEMB      4               0.0000000000
       447         4  SAPS      H6X             3.2618991220        5.4304521737       11.8052659652  MEMB      4               0.0000000000
       448         4  SAPS      H6Y             4.5833489683        6.7453851706       11.6112413491  MEMB      4               0.0000000000
       449         4  SAPS      C37             2.6802340060        7.2275282011       10.7619603139  MEMB      4               0.0000000000
       450         4  SAPS      H7X             2.8160895564        8.3069811489       10.9870064666  MEMB      4               0.0000000000
       451         4  SAPS      H7Y             1.5918577465        7.0192253285       10.8417593976  MEMB      4               0.0000000000
       452         4  SAPS      C38             3.1642136832        6.9128283422        9.2911829528  MEMB      4               0.0000000000
       453         4  SAPS      H8X             4.1725636285        7.3775483426        9.2513499323  MEMB      4               0.0000000000
       454         4  SAPS      H8Y             2.5418983838        7.4813166398        8.5673975648  MEMB      4               0.0000000000
       455         4  SAPS      C39             3.1070476450        5.4462392137        8.9310570463  MEMB      4               0.0000000000
       456         4  SAPS      H9X             2.1005435164        5.0612494113        8.6607726335  MEMB      4               0.0000000000
       457         4  SAPS      H9Y             3.5642432236        4.8197616791        9.7265561142  MEMB      4               0.0000000000
       458         4  SAPS      C310            4.0633353419        5.1413045982        7.7073965375  MEMB      4               0.0000000000
       459         4  SAPS      H10X            3.8058056882        4.0939190843        7.4409691502  MEMB      4               0.0000000000
       460         4  SAPS      H10Y            5.0487783111        5.2016401936        8.2168891184  MEMB      4               0.0000000000
       461         4  SAPS      C311            3.8782635071        5.9948628286        6.4589560046  MEMB      4               0.0000000000
       462         4  SAPS      H11X            4.0098655122        7.0807786722        6.6533502138  MEMB      4               0.0000000000
       463         4  SAPS      H11Y            2.8345656983        5.9843727499        6.0782915919  MEMB      4               0.0000000000
       464         4  SAPS      C312            4.7548343128        5.5705325267        5.2422145696  MEMB      4               0.0000000000
       465         4  SAPS      H12X            4.4210292310        6.1497476225        4.3548559828  MEMB      4               0.0000000000
       466         4  SAPS      H12Y            4.6876287157        4.4742179415        5.0751859730  MEMB      4               0.0000000000
       467         4  SAPS      C313            6.2509688959        5.8183955706        5.5773763836  MEMB      4               0.0000000000
       468         4  SAPS      H13X            6.5488773112        5.0937760634        6.3650933923  MEMB      4               0.0000000000
       469         4  SAPS      H13Y            6.4819111962        6.8241459330        5.9890231490  MEMB      4               0.0000000000
       470         4  SAPS      C314            7.0542137780        5.5973734633        4.2994251823  MEMB      4               0.0000000000
       471         4  SAPS      H14X            6.8008776323        4.5713274307        3.9568289889  MEMB      4               0.0000000000
       472         4  SAPS      H14Y            8.1381065662        5.6970769913        4.5220375829  MEMB      4               0.0000000000
       473         4  SAPS      C315            6.8901758070        6.5997194858        3.1415037284  MEMB      4               0.0000000000
       474         4  SAPS      H15X            7.4042919766        7.5312396366        3.4613098751  MEMB      4               0.0000000000
       475         4  SAPS      H15Y            5.8266630601        6.7709205135        2.8695621574  MEMB      4               0.0000000000
       476         4  SAPS      C316            7.7017835965        6.1702795830        1.8973353539  MEMB      4               0.0000000000
       477         4  SAPS      H16X            7.8113018635        5.0755534028        1.7427331693  MEMB      4               0.0000000000
       478         4  SAPS      H16Y            8.7387225962        6.5353466155        2.0579721698  MEMB      4               0.0000000000
       479         4  SAPS      C317            6.9695157422        6.8500463139        0.7240400007  MEMB      4               0.0000000000
       480         4  SAPS      H17X            6.9577342202        7.9581486891        0.8033560585  MEMB      4               0.0000000000
       481         4  SAPS      H17Y            5.8797558059        6.6363233421        0.7566989187  MEMB      4               0.0000000000
       482         4  SAPS      C318            7.6662363421        6.5212550615       -0.6247086022  MEMB      4               0.0000000000
       483         4  SAPS      H18X            7.3273792774        7.0016740452       -1.5674143196  MEMB      4               0.0000000000
       484         4  SAPS      H18Y            7.6309481706        5.4311162256       -0.8360675068  MEMB      4               0.0000000000
       485         4  SAPS      H18Z            8.7586624426        6.7234155602       -0.6322784546  MEMB      4               0.0000000000
       486         5  SAPS      N              -9.4307775906        2.6307854841       21.2591995905  MEMB      5               0.0000000000
       487         5  SAPS      HN1            -9.9316173734        2.6347502980       20.3477481639  MEMB      5               0.0000000000
       488         5  SAPS      HN2           -10.0519655375        2.2586190810       22.0056697905  MEMB      5               0.0000000000
       489         5  SAPS      HN3            -9.0747501043        3.5752348581       21.5099188300  MEMB      5               0.0000000000
       490         5  SAPS      C12            -8.3113897112        1.6535723385       20.9824111572  MEMB      5               0.0000000000
       491         5  SAPS      H12A           -7.6721323118        2.1005010025       20.2354139491  MEMB      5               0.0000000000
       492         5  SAPS      C13            -7.3778464253        1.3213959487       22.1994251033  MEMB      5               0.0000000000
       493         5  SAPS      O13A           -7.6796438764        1.6108243500       23.3411840846  MEMB      5               0.0000000000
       494         5  SAPS      O13B           -6.4578336188        0.4866075711       21.9454776357  MEMB      5               0.0000000000
       495         5  SAPS      C11            -8.8397891073        0.3270210334       20.5517683712  MEMB      5               0.0000000000
       496         5  SAPS      H11A           -9.4244004484       -0.0926337833       21.3981964436  MEMB      5               0.0000000000
       497         5  SAPS      H11B           -7.9558056298       -0.3440608270       20.5013364574  MEMB      5               0.0000000000
       498         5  SAPS      P              -9.0623643507        0.0360713976       17.9576259689  MEMB      5               0.0000000000
       499         5  SAPS      O13            -7.9324316094        0.9017329217       17.5908284615  MEMB      5               0.0000000000
       500         5  SAPS      O14            -8.7815279748       -1.4069673347       17.8225622002  MEMB      5               0.0000000000
       501         5  SAPS      O12            -9.6746084339        0.4229797088       19.4129773559  MEMB      5               0.0000000000
       502         5  SAPS      O11           -10.2258616411        0.3373274741       16.9365400372  MEMB      5               0.0000000000
       503         5  SAPS      C1            -11.0366287281        1.4753409149       17.1158773874  MEMB      5               0.0000000000
       504         5  SAPS      HA            -11.6868191201        1.3200382628       18.0032638804  MEMB      5               0.0000000000
       505         5  SAPS      HB            -10.3596392534        2.3560575495       17.1344455436  MEMB      5               0.0000000000
       506         5  SAPS      C2            -11.8677447262        1.9372322492       15.8881699156  MEMB      5               0.0000000000
       507         5  SAPS      HS            -12.6878828636        2.6540286507       16.1070243079  MEMB      5               0.0000000000
       508         5  SAPS      O21           -12.4561509806        0.7199587805       15.4051950987  MEMB      5               0.0000000000
       509         5  SAPS      C21           -13.5369360672        0.7929341696       14.7688064778  MEMB      5               0.0000000000
       510         5  SAPS      O22           -14.1573597883        1.7830881647       14.4686863571  MEMB      5               0.0000000000
       511         5  SAPS      C22           -14.0324324193       -0.6019218360       14.3050120903  MEMB      5               0.0000000000
       512         5  SAPS      H2R           -14.3229143391       -1.3013870231       15.1178402260  MEMB      5               0.0000000000
       513         5  SAPS      H2S           -14.8886331956       -0.3200965218       13.6555388134  MEMB      5               0.0000000000
       514         5  SAPS      C3            -10.9521077441        2.5138509273       14.7357446355  MEMB      5               0.0000000000
       515         5  SAPS      HX            -10.5389624192        3.4558566701       15.1555747359  MEMB      5               0.0000000000
       516         5  SAPS      HY            -11.4234096733        2.8184929492       13.7768971202  MEMB      5               0.0000000000
       517         5  SAPS      O31            -9.9083041882        1.5508570193       14.5516469627  MEMB      5               0.0000000000
       518         5  SAPS      C31           -10.0392314515        0.6877101788       13.5478475151  MEMB      5               0.0000000000
       519         5  SAPS      O32           -10.8346427920        0.7957983341       12.6298324828  MEMB      5               0.0000000000
       520         5  SAPS      C32            -8.9908890158       -0.4324707887       13.7469494940  MEMB      5               0.0000000000
       521         5  SAPS      H2X            -8.8856488813       -0.8184297257       14.7834251170  MEMB      5               0.0000000000
       522         5  SAPS      H2Y            -8.0164056571       -0.0899531962       13.3378226137  MEMB      5               0.0000000000
       523         5  SAPS      C23           -13.0325534718       -1.2823945868       13.3323534497  MEMB      5               0.0000000000
       524         5  SAPS      H3R           -12.0495309306       -1.4179563713       13.8319639805  MEMB      5               0.0000000000
       525         5  SAPS      H3S           -12.9138573819       -0.5868843375       12.4741594399  MEMB      5               0.0000000000
       526         5  SAPS      C24           -13.4784461413       -2.6644533206       12.7599577716  MEMB      5               0.0000000000
       527         5  SAPS      H4R           -13.8160327342       -3.2366246199       13.6504498997  MEMB      5               0.0000000000
       528         5  SAPS      H4S           -12.6299416728       -3.2575835461       12.3567733381  MEMB      5               0.0000000000
       529         5  SAPS      C25           -14.6598406250       -2.6083259674       11.8411732274  MEMB      5               0.0000000000
       530         5  SAPS      H5R           -15.6239090126       -2.3481256992       12.3025498633  MEMB      5               0.0000000000
       531         5  SAPS      C26           -14.5805919183       -2.8545272855       10.5362462577  MEMB      5               0.0000000000
       532         5  SAPS      H6R           -15.5458306110       -2.8683143921       10.0088714171  MEMB      5               0.0000000000
       533         5  SAPS      C27           -13.3999744910       -3.2599320664        9.6297304928  MEMB      5               0.0000000000
       534         5  SAPS      H7R           -13.5769957310       -4.2986565043        9.2775429010  MEMB      5               0.0000000000
       535         5  SAPS      H7S           -12.4645626476       -3.2999647019       10.2278306128  MEMB      5               0.0000000000
       536         5  SAPS      C28           -13.2720608560       -2.2720465299        8.5279676917  MEMB      5               0.0000000000
       537         5  SAPS      H8R           -12.8149702769       -1.3130002135        8.8130957589  MEMB      5               0.0000000000
       538         5  SAPS      C29           -13.5697963398       -2.4770249332        7.2570166757  MEMB      5               0.0000000000
       539         5  SAPS      H9R           -13.4144979034       -1.6307699281        6.5716444088  MEMB      5               0.0000000000
       540         5  SAPS      C210          -14.0683823026       -3.6495918818        6.5459064405  MEMB      5               0.0000000000
       541         5  SAPS      H10R          -14.5948957978       -4.3117419263        7.2660881858  MEMB      5               0.0000000000
       542         5  SAPS      H10S          -13.1437029262       -4.1587250059        6.1993918695  MEMB      5               0.0000000000
       543         5  SAPS      C211          -14.8681725837       -3.5072749149        5.3387153384  MEMB      5               0.0000000000
       544         5  SAPS      H11R          -15.9177721407       -3.8207826659        5.4389845636  MEMB      5               0.0000000000
       545         5  SAPS      C212          -14.3830751741       -3.1252517170        4.1468116394  MEMB      5               0.0000000000
       546         5  SAPS      H12R          -15.0963221432       -3.0584141874        3.3120602686  MEMB      5               0.0000000000
       547         5  SAPS      C213          -12.9117955345       -2.7795641498        3.7552957659  MEMB      5               0.0000000000
       548         5  SAPS      H13R          -12.5239335620       -2.2503966675        4.6518813097  MEMB      5               0.0000000000
       549         5  SAPS      H13S          -12.6651650982       -2.0269110695        2.9761880982  MEMB      5               0.0000000000
       550         5  SAPS      C214          -12.2105858526       -4.0976833661        3.5258675937  MEMB      5               0.0000000000
       551         5  SAPS      H14R          -12.8142420577       -5.0079854849        3.6560565744  MEMB      5               0.0000000000
       552         5  SAPS      C215          -10.8679593005       -4.2261554281        3.2385178663  MEMB      5               0.0000000000
       553         5  SAPS      H15R          -10.3710598378       -5.1672943609        2.9604026120  MEMB      5               0.0000000000
       554         5  SAPS      C216           -9.9594806880       -2.9808564650        3.0684633818  MEMB      5               0.0000000000
       555         5  SAPS      H16R           -9.2508464206       -2.9458656217        3.9234095411  MEMB      5               0.0000000000
       556         5  SAPS      H16S          -10.3388603364       -1.9412285774        3.1662677697  MEMB      5               0.0000000000
       557         5  SAPS      C217           -9.0177215944       -2.9684222164        1.8712903829  MEMB      5               0.0000000000
       558         5  SAPS      H17R           -8.3784559602       -3.8770764543        1.8740717973  MEMB      5               0.0000000000
       559         5  SAPS      H17S           -8.4009608488       -2.0500435078        1.9737966749  MEMB      5               0.0000000000
       560         5  SAPS      C218           -9.7426051803       -2.8657457247        0.4976091749  MEMB      5               0.0000000000
       561         5  SAPS      H18R           -9.7070806573       -1.7928738749        0.2112439154  MEMB      5               0.0000000000
       562         5  SAPS      H18S          -10.8340606587       -3.0699289270        0.5344169562  MEMB      5               0.0000000000
       563         5  SAPS      C219           -9.0630210631       -3.6991546839       -0.7090942843  MEMB      5               0.0000000000
       564         5  SAPS      H19R           -9.3038909007       -4.7779031281       -0.5968242514  MEMB      5               0.0000000000
       565         5  SAPS      H19S           -7.9698707057       -3.5162717649       -0.7858868072  MEMB      5               0.0000000000
       566         5  SAPS      C220           -9.6171590193       -3.1148867944       -2.0328972420  MEMB      5               0.0000000000
       567         5  SAPS      H20R           -9.2348404819       -3.6572073523       -2.9239862179  MEMB      5               0.0000000000
       568         5  SAPS      H20S           -9.2469856440       -2.0894746405       -2.2469595668  MEMB      5               0.0000000000
       569         5  SAPS      H20T          -10.7202719613       -3.2346299095       -1.9770042693  MEMB      5               0.0000000000
       570         5  SAPS      C33            -9.3949042095       -1.6640452437       12.9273746325  MEMB      5               0.0000000000
       571         5  SAPS      H3X            -9.7148713152       -1.2261016045       11.9577627577  MEMB      5               0.0000000000
       572         5  SAPS      H3Y           -10.2202574803       -2.2656286465       13.3646507836  MEMB      5               0.0000000000
       573         5  SAPS      C34            -8.2334887502       -2.5148397607       12.4604640634  MEMB      5               0.0000000000
       574         5  SAPS      H4X            -7.9761421619       -3.2566689537       13.2464557607  MEMB      5               0.0000000000
       575         5  SAPS      H4Y            -7.3245882649       -1.9275669798       12.2088066533  MEMB      5               0.0000000000
       576         5  SAPS      C35            -8.5726883851       -3.3320881846       11.2418207564  MEMB      5               0.0000000000
       577         5  SAPS      H5X            -9.6519421950       -3.5464430840       11.3953923192  MEMB      5               0.0000000000
       578         5  SAPS      H5Y            -7.9143008047       -4.2269292744       11.2315159904  MEMB      5               0.0000000000
       579         5  SAPS      C36            -8.3362835179       -2.4567772937        9.9899327885  MEMB      5               0.0000000000
       580         5  SAPS      H6X            -7.2379738938       -2.3385730401        9.8713376140  MEMB      5               0.0000000000
       581         5  SAPS      H6Y            -8.7602939284       -1.4586850788       10.2314869145  MEMB      5               0.0000000000
       582         5  SAPS      C37            -8.9606084503       -3.0728095168        8.7106441815  MEMB      5               0.0000000000
       583         5  SAPS      H7X            -9.9210454467       -3.5883866318        8.9252648771  MEMB      5               0.0000000000
       584         5  SAPS      H7Y            -8.3051769286       -3.8724395613        8.3040452039  MEMB      5               0.0000000000
       585         5  SAPS      C38            -9.2674822725       -2.0343578890        7.5508422502  MEMB      5               0.0000000000
       586         5  SAPS      H8X            -9.7162291559       -1.1084633586        7.9699679212  MEMB      5               0.0000000000
       587         5  SAPS      H8Y            -9.9926588941       -2.6255215440        6.9517051258  MEMB      5               0.0000000000
       588         5  SAPS      C39            -8.1701032772       -1.6938865408        6.5485924756  MEMB      5               0.0000000000
       589         5  SAPS      H9X            -7.9020691695       -2.6762188900        6.1041807053  MEMB      5               0.0000000000
       590         5  SAPS      H9Y            -7.2758939902       -1.4492864506        7.1608682576  MEMB      5               0.0000000000
       591         5  SAPS      C310           -8.4667511201       -0.5328981791        5.5923074887  MEMB      5               0.0000000000
       592         5  SAPS      H10X           -8.9279388214        0.2071301993        6.2807733880  MEMB      5               0.0000000000
       593         5  SAPS      H10Y           -9.2688457766       -0.7531540451        4.8557933890  MEMB      5               0.0000000000
       594         5  SAPS      C311           -7.3692524780        0.1179425173        4.9107541983  MEMB      5               0.0000000000
       595         5  SAPS      H11X           -7.0435606709       -0.3754949337        3.9701342258  MEMB      5               0.0000000000
       596         5  SAPS      H11Y           -6.4553654032        0.0728393831        5.5409099892  MEMB      5               0.0000000000
       597         5  SAPS      C312           -7.6703984319        1.5425249105        4.4660672647  MEMB      5               0.0000000000
       598         5  SAPS      H12X           -6.7330588014        1.8212800552        3.9387996415  MEMB      5               0.0000000000
       599         5  SAPS      H12Y           -7.9551220392        2.1615869886        5.3435724989  MEMB      5               0.0000000000
       600         5  SAPS      C313           -8.7593727803        1.5513098960        3.3533211692  MEMB      5               0.0000000000
       601         5  SAPS      H13X           -9.7403017162        1.4793191353        3.8699610316  MEMB      5               0.0000000000
       602         5  SAPS      H13Y           -8.5613079541        0.7587943920        2.6003191116  MEMB      5               0.0000000000
       603         5  SAPS      C314           -8.8906706667        2.9170936196        2.6118612131  MEMB      5               0.0000000000
       604         5  SAPS      H14X           -7.9113884205        3.1693803442        2.1517758731  MEMB      5               0.0000000000
       605         5  SAPS      H14Y           -9.1311565465        3.6843002441        3.3785967373  MEMB      5               0.0000000000
       606         5  SAPS      C315           -9.9144919683        2.8967155957        1.4085033524  MEMB      5               0.0000000000
       607         5  SAPS      H15X           -9.5851077981        2.0781317776        0.7334134682  MEMB      5               0.0000000000
       608         5  SAPS      H15Y           -9.8646481341        3.8302920973        0.8082780788  MEMB      5               0.0000000000
       609         5  SAPS      C316          -11.3613479220        2.6550778039        1.7437887749  MEMB      5               0.0000000000
       610         5  SAPS      H16X          -11.6766711069        3.5990913065        2.2374799245  MEMB      5               0.0000000000
       611         5  SAPS      H16Y          -11.6241666118        1.7597448255        2.3468026498  MEMB      5               0.0000000000
       612         5  SAPS      C317          -12.0777119381        2.4594507400        0.3950188874  MEMB      5               0.0000000000
       613         5  SAPS      H17X          -11.9353937152        1.4331680607       -0.0059935179  MEMB      5               0.0000000000
       614         5  SAPS      H17Y          -11.5404168913        3.0301422940       -0.3923470494  MEMB      5               0.0000000000
       615         5  SAPS      C318          -13.5289691884        2.8590384690        0.4817824150  MEMB      5               0.0000000000
       616         5  SAPS      H18X          -13.8961632799        2.6333163657       -0.5422000978  MEMB      5               0.0000000000
       617         5  SAPS      H18Y          -13.5990672390        3.9525526483        0.6651753519  MEMB      5               0.0000000000
       618         5  SAPS      H18Z          -14.0266699778        2.2833311300        1.2912107763  MEMB      5               0.0000000000
       619         6  CHL1      C3              1.1062540218       -9.5804220410       17.3007350000  MEMB      6               0.0000000000
       620         6  CHL1      H3              0.7941745386       -8.5556296524       17.0062350000  MEMB      6               0.0000000000
       621         6  CHL1      O3              1.1409110382       -9.7190289190       18.6992650000  MEMB      6               0.0000000000
       622         6  CHL1      H3'             0.2390769100       -9.9526084107       18.9310650000  MEMB      6               0.0000000000
       623         6  CHL1      C4              0.3172378947      -10.6422361340       16.5860050000  MEMB      6               0.0000000000
       624         6  CHL1      H4A             0.6326153910      -11.6686922864       16.8710350000  MEMB      6               0.0000000000
       625         6  CHL1      H4B            -0.7056782597      -10.5273981442       17.0040850000  MEMB      6               0.0000000000
       626         6  CHL1      C5              0.3593599847      -10.4994623225       15.1005750000  MEMB      6               0.0000000000
       627         6  CHL1      C6             -0.7752421625      -10.3364696371       14.4022650000  MEMB      6               0.0000000000
       628         6  CHL1      H6             -1.7613300723      -10.3358983883       14.8897350000  MEMB      6               0.0000000000
       629         6  CHL1      C7             -0.8724873350      -10.0258807493       12.9958750000  MEMB      6               0.0000000000
       630         6  CHL1      H7A            -1.7074504680      -10.6111278757       12.5546950000  MEMB      6               0.0000000000
       631         6  CHL1      H7B            -1.1211855814       -8.9519364653       12.8575750000  MEMB      6               0.0000000000
       632         6  CHL1      C8              0.4722385068      -10.3043699463       12.1879250000  MEMB      6               0.0000000000
       633         6  CHL1      H8              0.6291211847      -11.3914197210       12.0204850000  MEMB      6               0.0000000000
       634         6  CHL1      C14             0.4121632615       -9.6655032714       10.8451150000  MEMB      6               0.0000000000
       635         6  CHL1      H14             0.2310898434       -8.5711090507       10.9070350000  MEMB      6               0.0000000000
       636         6  CHL1      C15            -0.7500386928      -10.1288075471        9.9163550000  MEMB      6               0.0000000000
       637         6  CHL1      H15A           -0.7181425570      -11.2338442167       10.0267550000  MEMB      6               0.0000000000
       638         6  CHL1      H15B           -1.7511574393       -9.8086234429       10.2763050000  MEMB      6               0.0000000000
       639         6  CHL1      C16            -0.3294892363       -9.7497767129        8.5600150000  MEMB      6               0.0000000000
       640         6  CHL1      H16A           -0.4040395464      -10.6665939184        7.9369450000  MEMB      6               0.0000000000
       641         6  CHL1      H16B           -0.8585754220       -8.8942959355        8.0882750000  MEMB      6               0.0000000000
       642         6  CHL1      C17             1.1734054059       -9.3188050163        8.6298250000  MEMB      6               0.0000000000
       643         6  CHL1      H17             1.1759693551       -8.2386556476        8.8898150000  MEMB      6               0.0000000000
       644         6  CHL1      C13             1.6115566401       -9.8530310346        9.9896250000  MEMB      6               0.0000000000
       645         6  CHL1      C18             1.9169067854      -11.3524331219        9.7046350000  MEMB      6               0.0000000000
       646         6  CHL1      H18A            2.0312557269      -12.0212365833       10.5843850000  MEMB      6               0.0000000000
       647         6  CHL1      H18B            1.0388953594      -11.8024134716        9.1938250000  MEMB      6               0.0000000000
       648         6  CHL1      H18C            2.8702246317      -11.4274569431        9.1390550000  MEMB      6               0.0000000000
       649         6  CHL1      C12             2.7938497512       -9.2421918779       10.8006750000  MEMB      6               0.0000000000
       650         6  CHL1      H12A            3.7285321349       -9.4770960835       10.2479350000  MEMB      6               0.0000000000
       651         6  CHL1      H12B            2.6701552207       -8.1399047585       10.8638750000  MEMB      6               0.0000000000
       652         6  CHL1      C11             2.9186588348       -9.8168393760       12.1809850000  MEMB      6               0.0000000000
       653         6  CHL1      H11A            3.2192135390      -10.8765180093       12.0358150000  MEMB      6               0.0000000000
       654         6  CHL1      H11B            3.7954142712       -9.3829564854       12.7076450000  MEMB      6               0.0000000000
       655         6  CHL1      C9              1.6045741415       -9.7278072940       12.9775450000  MEMB      6               0.0000000000
       656         6  CHL1      H9              1.2891999078       -8.6625077317       12.9762650000  MEMB      6               0.0000000000
       657         6  CHL1      C10             1.6887376204      -10.2080762728       14.4292150000  MEMB      6               0.0000000000
       658         6  CHL1      C19             2.3701120169      -11.5931178489       14.4650250000  MEMB      6               0.0000000000
       659         6  CHL1      H19A            2.5266516594      -12.1392286666       15.4197950000  MEMB      6               0.0000000000
       660         6  CHL1      H19B            1.8226873676      -12.3536355459       13.8681650000  MEMB      6               0.0000000000
       661         6  CHL1      H19C            3.3664740854      -11.5530586256       13.9751350000  MEMB      6               0.0000000000
       662         6  CHL1      C1              2.6207970862       -9.2211023727       15.2852550000  MEMB      6               0.0000000000
       663         6  CHL1      H1A             3.6246144447       -9.1371249305       14.8166150000  MEMB      6               0.0000000000
       664         6  CHL1      H1B             2.2784347285       -8.1781047647       15.1142050000  MEMB      6               0.0000000000
       665         6  CHL1      C2              2.5539411251       -9.5520704012       16.8305250000  MEMB      6               0.0000000000
       666         6  CHL1      H2A             3.1620386056       -8.8507865397       17.4410550000  MEMB      6               0.0000000000
       667         6  CHL1      H2B             2.9530776483      -10.5847450671       16.9232350000  MEMB      6               0.0000000000
       668         6  CHL1      C20             1.9956845440       -9.6601409563        7.3174650000  MEMB      6               0.0000000000
       669         6  CHL1      H20             2.1137772714      -10.7590066285        7.2040050000  MEMB      6               0.0000000000
       670         6  CHL1      C21             3.3202232845       -9.1319113978        7.4998150000  MEMB      6               0.0000000000
       671         6  CHL1      H21A            3.8883555808       -9.1670874742        6.5457150000  MEMB      6               0.0000000000
       672         6  CHL1      H21B            3.9422626395       -9.7259234146        8.2030550000  MEMB      6               0.0000000000
       673         6  CHL1      H21C            3.2798327368       -8.0579934970        7.7815950000  MEMB      6               0.0000000000
       674         6  CHL1      C22             1.3437733150       -9.1246864877        6.0617650000  MEMB      6               0.0000000000
       675         6  CHL1      H22A            0.3069559366       -9.5219471556        6.1005850000  MEMB      6               0.0000000000
       676         6  CHL1      H22B            1.3029403519       -8.0308210991        5.8717350000  MEMB      6               0.0000000000
       677         6  CHL1      C23             1.8154833000       -9.7944782636        4.8004750000  MEMB      6               0.0000000000
       678         6  CHL1      H23A            2.8998823459       -9.6696089866        4.5935850000  MEMB      6               0.0000000000
       679         6  CHL1      H23B            1.6311454476      -10.8861590776        4.8930850000  MEMB      6               0.0000000000
       680         6  CHL1      C24             1.0446774822       -9.1940871762        3.5949050000  MEMB      6               0.0000000000
       681         6  CHL1      H24A           -0.0501656484       -9.3796025174        3.6299450000  MEMB      6               0.0000000000
       682         6  CHL1      H24B            1.1126831988       -8.0863227089        3.6455950000  MEMB      6               0.0000000000
       683         6  CHL1      C25             1.5393079539       -9.6455631310        2.2106950000  MEMB      6               0.0000000000
       684         6  CHL1      H25             2.6445558011       -9.5342933093        2.1915050000  MEMB      6               0.0000000000
       685         6  CHL1      C26             1.2565366975      -11.1042160133        1.9771850000  MEMB      6               0.0000000000
       686         6  CHL1      H26A            1.8892111373      -11.8107598987        2.5558350000  MEMB      6               0.0000000000
       687         6  CHL1      H26B            0.1835572222      -11.2970498090        2.1913050000  MEMB      6               0.0000000000
       688         6  CHL1      H26C            1.3226184524      -11.2577803043        0.8788350000  MEMB      6               0.0000000000
       689         6  CHL1      C27             0.8822016803       -8.9107387929        1.0199950000  MEMB      6               0.0000000000
       690         6  CHL1      H27A           -0.1906443382       -9.1624781597        0.8787250000  MEMB      6               0.0000000000
       691         6  CHL1      H27B            0.9298149428       -7.8346530885        1.2921950000  MEMB      6               0.0000000000
       692         6  CHL1      H27C            1.5583300306       -8.9538562047        0.1394850000  MEMB      6               0.0000000000
       693         7  SLPC      N              10.9635442460        2.7884727050       16.1762730841  MEMB      7               0.0000000000
       694         7  SLPC      C13            11.5422538265        2.7304599956       17.5636005240  MEMB      7               0.0000000000
       695         7  SLPC      H13A           12.5853776224        2.4886040058       17.4228934924  MEMB      7               0.0000000000
       696         7  SLPC      H13B           11.3770972564        3.6798136718       18.0513002812  MEMB      7               0.0000000000
       697         7  SLPC      H13C           11.1316392277        1.8885069062       18.1011046237  MEMB      7               0.0000000000
       698         7  SLPC      C14            11.3711085782        3.9910476165       15.4815626109  MEMB      7               0.0000000000
       699         7  SLPC      H14A           12.4424206940        4.0677804050       15.3684148308  MEMB      7               0.0000000000
       700         7  SLPC      H14B           10.9245489825        4.1084561022       14.5052432067  MEMB      7               0.0000000000
       701         7  SLPC      H14C           11.0501931407        4.8311696907       16.0795661767  MEMB      7               0.0000000000
       702         7  SLPC      C15             9.4574240891        2.8861462721       16.3482367147  MEMB      7               0.0000000000
       703         7  SLPC      H15A            8.8849750322        2.8070730278       15.4358499273  MEMB      7               0.0000000000
       704         7  SLPC      H15B            9.1657070230        2.1195068351       17.0507787449  MEMB      7               0.0000000000
       705         7  SLPC      H15C            9.1955821711        3.8422210646       16.7769088489  MEMB      7               0.0000000000
       706         7  SLPC      C12            11.3933134446        1.5114067457       15.4577089922  MEMB      7               0.0000000000
       707         7  SLPC      H12A           12.4327239973        1.6159954421       15.1836889296  MEMB      7               0.0000000000
       708         7  SLPC      H12B           10.6865785095        1.3722274550       14.6530009344  MEMB      7               0.0000000000
       709         7  SLPC      C11            11.4814215318        0.2063693280       16.2084998492  MEMB      7               0.0000000000
       710         7  SLPC      H11A           12.3558615137        0.1712982203       16.8929308026  MEMB      7               0.0000000000
       711         7  SLPC      H11B           11.4797956235       -0.6475105254       15.4977202963  MEMB      7               0.0000000000
       712         7  SLPC      P               9.9801616754       -1.1026427504       18.0756859598  MEMB      7               0.0000000000
       713         7  SLPC      O13            10.7106211310       -0.8416618941       19.2922937659  MEMB      7               0.0000000000
       714         7  SLPC      O14             8.4671590014       -1.2228061211       18.0495556647  MEMB      7               0.0000000000
       715         7  SLPC      O12            10.3563486622        0.0527731330       17.0411074393  MEMB      7               0.0000000000
       716         7  SLPC      O11            10.4988234971       -2.4036957113       17.3054754029  MEMB      7               0.0000000000
       717         7  SLPC      C1             10.2116085424       -3.7047304240       17.7403712747  MEMB      7               0.0000000000
       718         7  SLPC      HA             10.8299539155       -3.9415617165       18.6324928121  MEMB      7               0.0000000000
       719         7  SLPC      HB              9.1529859076       -3.8730334441       18.0324553158  MEMB      7               0.0000000000
       720         7  SLPC      C2             10.6467747025       -4.6546491215       16.5928603101  MEMB      7               0.0000000000
       721         7  SLPC      HS             10.9786647376       -5.6360470997       16.9941431348  MEMB      7               0.0000000000
       722         7  SLPC      O21            11.5972992532       -4.0564369642       15.6701607958  MEMB      7               0.0000000000
       723         7  SLPC      C21            12.8345686209       -3.9204093593       16.1825530077  MEMB      7               0.0000000000
       724         7  SLPC      O22            13.0772862074       -4.1469493450       17.3740158334  MEMB      7               0.0000000000
       725         7  SLPC      C22            13.8070007924       -3.5204833138       15.0858161689  MEMB      7               0.0000000000
       726         7  SLPC      H2R            14.6028958660       -2.8992804510       15.5494744542  MEMB      7               0.0000000000
       727         7  SLPC      H2S            14.3322757398       -4.4202133546       14.6999494811  MEMB      7               0.0000000000
       728         7  SLPC      C3              9.4220109004       -5.0588565910       15.7958381508  MEMB      7               0.0000000000
       729         7  SLPC      HX              8.6301584930       -5.6072341806       16.3495280875  MEMB      7               0.0000000000
       730         7  SLPC      HY              9.7690832586       -5.8412273924       15.0874896672  MEMB      7               0.0000000000
       731         7  SLPC      O31             8.9134238685       -3.9330483215       15.1507616764  MEMB      7               0.0000000000
       732         7  SLPC      C31             8.9537796017       -3.6922613645       13.9038616687  MEMB      7               0.0000000000
       733         7  SLPC      O32             9.5299183558       -4.4050671921       13.0736957898  MEMB      7               0.0000000000
       734         7  SLPC      C32             8.1429001717       -2.4549115096       13.5576998040  MEMB      7               0.0000000000
       735         7  SLPC      H2X             7.8779494248       -1.9269269989       14.4986326652  MEMB      7               0.0000000000
       736         7  SLPC      H2Y             7.2405732700       -2.7358565175       12.9735788080  MEMB      7               0.0000000000
       737         7  SLPC      C23            13.1070584823       -2.6655751350       14.0315145799  MEMB      7               0.0000000000
       738         7  SLPC      H3R            12.7335372297       -1.7519792182       14.5415591157  MEMB      7               0.0000000000
       739         7  SLPC      H3S            12.2277947555       -3.2444121732       13.6763186267  MEMB      7               0.0000000000
       740         7  SLPC      C24            14.0626883931       -2.2750485961       12.9063842844  MEMB      7               0.0000000000
       741         7  SLPC      H4R            14.9502221430       -1.7828483493       13.3584277815  MEMB      7               0.0000000000
       742         7  SLPC      H4S            13.6109670635       -1.6203401298       12.1307390869  MEMB      7               0.0000000000
       743         7  SLPC      C25            14.4581784977       -3.5871217318       12.0830900947  MEMB      7               0.0000000000
       744         7  SLPC      H5R            15.0495397010       -4.3175507168       12.6756150234  MEMB      7               0.0000000000
       745         7  SLPC      H5S            15.0491857419       -3.2633108391       11.1998135456  MEMB      7               0.0000000000
       746         7  SLPC      C26            13.2109014992       -4.3997434025       11.5540260974  MEMB      7               0.0000000000
       747         7  SLPC      H6R            12.6567008642       -4.8842345856       12.3861626430  MEMB      7               0.0000000000
       748         7  SLPC      H6S            13.6566289177       -5.2187319288       10.9499521445  MEMB      7               0.0000000000
       749         7  SLPC      C27            12.1805010695       -3.5089063656       10.7104926048  MEMB      7               0.0000000000
       750         7  SLPC      H7R            12.9307956981       -2.8499114496       10.2235582719  MEMB      7               0.0000000000
       751         7  SLPC      H7S            11.4859005965       -2.9071947467       11.3348275401  MEMB      7               0.0000000000
       752         7  SLPC      C28            11.3338847947       -4.3888633676        9.7286945191  MEMB      7               0.0000000000
       753         7  SLPC      H8R            10.7346370070       -4.9849997337       10.4496969093  MEMB      7               0.0000000000
       754         7  SLPC      H8S            11.9878586474       -5.0561748601        9.1275833101  MEMB      7               0.0000000000
       755         7  SLPC      C29            10.3964005985       -3.5385548202        8.8462965158  MEMB      7               0.0000000000
       756         7  SLPC      H9R             9.6436008382       -3.0782954141        9.5031484020  MEMB      7               0.0000000000
       757         7  SLPC      C210           10.4312640399       -3.3271292796        7.4975530108  MEMB      7               0.0000000000
       758         7  SLPC      H10R            9.6221005415       -2.7786804547        6.9931142053  MEMB      7               0.0000000000
       759         7  SLPC      C211           11.4455835664       -3.8861120787        6.5385348104  MEMB      7               0.0000000000
       760         7  SLPC      H11R           12.4299121661       -4.2135932224        6.9362460028  MEMB      7               0.0000000000
       761         7  SLPC      H11S           11.8262368603       -3.1235955795        5.8257986395  MEMB      7               0.0000000000
       762         7  SLPC      C212           10.9207145924       -5.1201338400        5.7990161645  MEMB      7               0.0000000000
       763         7  SLPC      H12R           10.7580535623       -6.0857508388        6.3001397976  MEMB      7               0.0000000000
       764         7  SLPC      C213           10.7425902435       -5.2156011077        4.4414271293  MEMB      7               0.0000000000
       765         7  SLPC      H13R           10.3351362726       -6.1446290570        4.0161175841  MEMB      7               0.0000000000
       766         7  SLPC      C214           11.0861662063       -4.1045410529        3.4867342159  MEMB      7               0.0000000000
       767         7  SLPC      H14R           10.3594710495       -3.2804029941        3.6511472176  MEMB      7               0.0000000000
       768         7  SLPC      H14S           10.8124234543       -4.4918338167        2.4820504330  MEMB      7               0.0000000000
       769         7  SLPC      C215           12.4280753996       -3.5009131327        3.2327693287  MEMB      7               0.0000000000
       770         7  SLPC      H15R           12.9028714707       -3.0118771652        4.1101137805  MEMB      7               0.0000000000
       771         7  SLPC      H15S           12.3587534741       -2.6680505731        2.5007481557  MEMB      7               0.0000000000
       772         7  SLPC      C216           13.4935267431       -4.5696101907        2.8652191163  MEMB      7               0.0000000000
       773         7  SLPC      H16R           13.2797212558       -4.8611539650        1.8146904852  MEMB      7               0.0000000000
       774         7  SLPC      H16S           13.4461064860       -5.4850703849        3.4929173027  MEMB      7               0.0000000000
       775         7  SLPC      C217           14.9476491481       -3.9520652333        2.9355421262  MEMB      7               0.0000000000
       776         7  SLPC      H17R           15.7229587350       -4.6791665549        2.6122174225  MEMB      7               0.0000000000
       777         7  SLPC      H17S           15.1922249786       -3.6914646761        3.9874885282  MEMB      7               0.0000000000
       778         7  SLPC      C218           15.2451613349       -2.8193372328        1.9767561930  MEMB      7               0.0000000000
       779         7  SLPC      H18R           14.7958499691       -3.0059885620        0.9779557559  MEMB      7               0.0000000000
       780         7  SLPC      H18S           16.3502449771       -2.7069225540        1.9985440836  MEMB      7               0.0000000000
       781         7  SLPC      H18T           14.7007335145       -1.9341145146        2.3695666652  MEMB      7               0.0000000000
       782         7  SLPC      C33             9.1045318289       -1.6078319869       12.7299003649  MEMB      7               0.0000000000
       783         7  SLPC      H3X             9.2932075902       -2.1055707827       11.7547190676  MEMB      7               0.0000000000
       784         7  SLPC      H3Y            10.0374166474       -1.5031216628       13.3241081113  MEMB      7               0.0000000000
       785         7  SLPC      C34             8.5063745604       -0.2251965828       12.3253400910  MEMB      7               0.0000000000
       786         7  SLPC      H4X             7.9876152877        0.1772301101       13.2215891444  MEMB      7               0.0000000000
       787         7  SLPC      H4Y             7.8171982585       -0.3143975277       11.4585063219  MEMB      7               0.0000000000
       788         7  SLPC      C35             9.5256934123        0.7885691478       11.8891439515  MEMB      7               0.0000000000
       789         7  SLPC      H5X            10.2878565086        0.8770607061       12.6926350056  MEMB      7               0.0000000000
       790         7  SLPC      H5Y             9.0409021477        1.7866784493       11.8336802930  MEMB      7               0.0000000000
       791         7  SLPC      C36            10.4174012115        0.4226105784       10.7274875277  MEMB      7               0.0000000000
       792         7  SLPC      H6X             9.8817891366        0.0255784492        9.8387772804  MEMB      7               0.0000000000
       793         7  SLPC      H6Y            11.0750574691       -0.3827230780       11.1189550393  MEMB      7               0.0000000000
       794         7  SLPC      C37            11.4545126542        1.5055592933       10.3918287759  MEMB      7               0.0000000000
       795         7  SLPC      H7X            11.9445021435        1.8240136282       11.3367191777  MEMB      7               0.0000000000
       796         7  SLPC      H7Y            10.9401880941        2.4098263893       10.0018385319  MEMB      7               0.0000000000
       797         7  SLPC      C38            12.4160588757        1.0612688833        9.2651289474  MEMB      7               0.0000000000
       798         7  SLPC      H8X            12.7930499139        0.0455806844        9.5112513149  MEMB      7               0.0000000000
       799         7  SLPC      H8Y            13.2509235137        1.7942487826        9.2572424610  MEMB      7               0.0000000000
       800         7  SLPC      C39            11.8706855920        1.0875387375        7.7704675328  MEMB      7               0.0000000000
       801         7  SLPC      H9X            11.0169330666        1.7941361131        7.6920599762  MEMB      7               0.0000000000
       802         7  SLPC      H9Y            11.4944320906        0.0463539010        7.6772549426  MEMB      7               0.0000000000
       803         7  SLPC      C310           13.0469433018        1.2363370263        6.7290006184  MEMB      7               0.0000000000
       804         7  SLPC      H10X           13.9596905235        0.6040959939        6.7675389808  MEMB      7               0.0000000000
       805         7  SLPC      H10Y           13.4584758375        2.2645131745        6.8174074965  MEMB      7               0.0000000000
       806         7  SLPC      C311           12.6267263625        1.0471403950        5.3472792294  MEMB      7               0.0000000000
       807         7  SLPC      H11X           12.4055804221       -0.0383859781        5.2633273941  MEMB      7               0.0000000000
       808         7  SLPC      H11Y           13.4242555247        1.4226164780        4.6710504016  MEMB      7               0.0000000000
       809         7  SLPC      C312           11.3219556081        1.7598316170        4.8794130098  MEMB      7               0.0000000000
       810         7  SLPC      H12X           11.4446462314        2.8188699061        5.1919910047  MEMB      7               0.0000000000
       811         7  SLPC      H12Y           10.4638702069        1.3224428243        5.4332186081  MEMB      7               0.0000000000
       812         7  SLPC      C313           11.2075399682        1.7330017313        3.3200292771  MEMB      7               0.0000000000
       813         7  SLPC      H13X           12.0492947517        2.3982827652        3.0316357896  MEMB      7               0.0000000000
       814         7  SLPC      H13Y           10.2450531147        2.2362887112        3.0862727159  MEMB      7               0.0000000000
       815         7  SLPC      C314           11.2350342509        0.3197371874        2.6988161261  MEMB      7               0.0000000000
       816         7  SLPC      H14X           12.2079602525       -0.1987927192        2.8361571000  MEMB      7               0.0000000000
       817         7  SLPC      H14Y           11.2470262222        0.5594881182        1.6140588563  MEMB      7               0.0000000000
       818         7  SLPC      C315           10.1476006220       -0.7046367616        3.1098742350  MEMB      7               0.0000000000
       819         7  SLPC      H15X           10.3149444324       -0.9749398307        4.1744174128  MEMB      7               0.0000000000
       820         7  SLPC      H15Y           10.2188430864       -1.5437582108        2.3852214674  MEMB      7               0.0000000000
       821         7  SLPC      C316            8.6902311464       -0.1699128444        2.9881853232  MEMB      7               0.0000000000
       822         7  SLPC      H16X            8.5541773471        0.8165725684        3.4807876012  MEMB      7               0.0000000000
       823         7  SLPC      H16Y            8.0980359280       -0.9279351522        3.5440884760  MEMB      7               0.0000000000
       824         7  SLPC      C317            8.2702040666       -0.1518706594        1.5266640066  MEMB      7               0.0000000000
       825         7  SLPC      H17X            8.3258820584       -1.2258437725        1.2477335256  MEMB      7               0.0000000000
       826         7  SLPC      H17Y            8.9491018069        0.4268030469        0.8644288120  MEMB      7               0.0000000000
       827         7  SLPC      C318            6.8155546056        0.3286966860        1.3218653647  MEMB      7               0.0000000000
       828         7  SLPC      H18X            6.6673451859        0.1380732598        0.2374228330  MEMB      7               0.0000000000
       829         7  SLPC      H18Y            6.5914944179        1.3988220942        1.5192231839  MEMB      7               0.0000000000
       830         7  SLPC      H18Z            6.0628332821       -0.2429179882        1.9058076730  MEMB      7               0.0000000000
       831         8  OSM       N              10.1344402672       -6.7222563360       22.0435942894  MEMB      8               0.0000000000
       832         8  OSM       C15            11.6559826982       -6.9269035232       22.5040357139  MEMB      8               0.0000000000
       833         8  OSM       H15A           12.1362161682       -6.0212572678       22.8440071417  MEMB      8               0.0000000000
       834         8  OSM       H15B           12.1855834077       -7.3445414169       21.6605299638  MEMB      8               0.0000000000
       835         8  OSM       H15C           11.7392214001       -7.5840040114       23.3570834038  MEMB      8               0.0000000000
       836         8  OSM       C14             9.5702132546       -5.8955169787       23.2469188433  MEMB      8               0.0000000000
       837         8  OSM       H14A            9.5833591958       -6.5378576390       24.1150349922  MEMB      8               0.0000000000
       838         8  OSM       H14B            8.6054435443       -5.4982039936       22.9680607536  MEMB      8               0.0000000000
       839         8  OSM       H14C           10.1277648532       -4.9840912822       23.4045235358  MEMB      8               0.0000000000
       840         8  OSM       C13            10.0912070752       -5.9376302214       20.7977552551  MEMB      8               0.0000000000
       841         8  OSM       H13A           10.8387357454       -5.1582051354       20.7878720971  MEMB      8               0.0000000000
       842         8  OSM       H13B            9.1126723100       -5.4842902108       20.7398540769  MEMB      8               0.0000000000
       843         8  OSM       H13C           10.1241966317       -6.7220662098       20.0561544018  MEMB      8               0.0000000000
       844         8  OSM       C12             9.5113730206       -8.1207980664       21.9443225601  MEMB      8               0.0000000000
       845         8  OSM       H12A            9.6075728529       -8.5918897060       22.9113894233  MEMB      8               0.0000000000
       846         8  OSM       H12B            9.9428108258       -8.6906932781       21.1347047871  MEMB      8               0.0000000000
       847         8  OSM       C11             8.0132513550       -8.2210740613       21.5413267193  MEMB      8               0.0000000000
       848         8  OSM       H11A            7.3840259774       -7.7406598007       22.3208128627  MEMB      8               0.0000000000
       849         8  OSM       H11B            7.6686921640       -9.2771733397       21.5253817786  MEMB      8               0.0000000000
       850         8  OSM       P               6.5071684600       -6.9676604170       19.8105352910  MEMB      8               0.0000000000
       851         8  OSM       O13             5.3210800879       -7.7342757081       20.3430489707  MEMB      8               0.0000000000
       852         8  OSM       O14             6.5185730061       -5.5581986880       20.3674685393  MEMB      8               0.0000000000
       853         8  OSM       O11             6.5720730289       -6.9189027735       18.2232904498  MEMB      8               0.0000000000
       854         8  OSM       O12             7.8803417611       -7.7770486581       20.1777033670  MEMB      8               0.0000000000
       855         8  OSM       C1S             6.7949244545       -7.9838822625       17.3617328133  MEMB      8               0.0000000000
       856         8  OSM       H1S             5.8486458489       -8.3375385388       16.8993419813  MEMB      8               0.0000000000
       857         8  OSM       H1T             7.2628874118       -8.8537687933       17.8702888121  MEMB      8               0.0000000000
       858         8  OSM       NF              7.7137552404       -8.6680373813       15.2358263982  MEMB      8               0.0000000000
       859         8  OSM       HNF             8.3968312614       -9.3883804972       15.1435126750  MEMB      8               0.0000000000
       860         8  OSM       C2S             7.8208672521       -7.6553928319       16.1999716770  MEMB      8               0.0000000000
       861         8  OSM       H2S             7.4840009889       -6.7299933332       15.6856976429  MEMB      8               0.0000000000
       862         8  OSM       C3S             9.3229309552       -7.6115852955       16.6704599209  MEMB      8               0.0000000000
       863         8  OSM       H3S             9.5840109473       -8.6051437679       17.0935434948  MEMB      8               0.0000000000
       864         8  OSM       O3              9.5622072973       -6.7509730265       17.7477229163  MEMB      8               0.0000000000
       865         8  OSM       HO3             8.7017512317       -6.3828267116       17.9614605168  MEMB      8               0.0000000000
       866         8  OSM       C4S            10.1088681970       -7.3281923838       15.3739431903  MEMB      8               0.0000000000
       867         8  OSM       H4S            10.4266132527       -8.2556932783       14.8751646704  MEMB      8               0.0000000000
       868         8  OSM       C5S            10.1581756183       -6.1537787251       14.8191936286  MEMB      8               0.0000000000
       869         8  OSM       H5S             9.7645098280       -5.2534743231       15.3136418389  MEMB      8               0.0000000000
       870         8  OSM       C6S            10.8999771625       -5.9288872885       13.5587210471  MEMB      8               0.0000000000
       871         8  OSM       H6S            11.5122091382       -6.7952958500       13.2288278426  MEMB      8               0.0000000000
       872         8  OSM       H6T            11.6054595761       -5.0808328905       13.6907035350  MEMB      8               0.0000000000
       873         8  OSM       C7S             9.9796731570       -5.4663502151       12.4279079679  MEMB      8               0.0000000000
       874         8  OSM       H7S            10.4740132401       -5.0603821169       11.5195360788  MEMB      8               0.0000000000
       875         8  OSM       H7T             9.2849966446       -4.6429386967       12.6994571931  MEMB      8               0.0000000000
       876         8  OSM       C8S             8.9601800598       -6.4830173762       11.9266051323  MEMB      8               0.0000000000
       877         8  OSM       H8S             8.2492774756       -6.8258992937       12.7085070987  MEMB      8               0.0000000000
       878         8  OSM       H8T             9.4756633633       -7.3635223631       11.4869363995  MEMB      8               0.0000000000
       879         8  OSM       C9S             8.0193102983       -6.0721989937       10.7840286371  MEMB      8               0.0000000000
       880         8  OSM       H9S             7.2080721862       -5.3710295077       11.0748465759  MEMB      8               0.0000000000
       881         8  OSM       H9T             7.6216456954       -7.0515901061       10.4420101439  MEMB      8               0.0000000000
       882         8  OSM       C10S            8.5713212804       -5.4619329595        9.4621085601  MEMB      8               0.0000000000
       883         8  OSM       H10S            9.1951250474       -6.2557496123        8.9983795943  MEMB      8               0.0000000000
       884         8  OSM       H10T            9.3901243101       -4.7720757914        9.7587226966  MEMB      8               0.0000000000
       885         8  OSM       C11S            7.5317984355       -4.8103624532        8.5219961391  MEMB      8               0.0000000000
       886         8  OSM       H11S            6.8072435698       -4.1615197189        9.0589734028  MEMB      8               0.0000000000
       887         8  OSM       H11T            6.9065455638       -5.6234407449        8.0950498007  MEMB      8               0.0000000000
       888         8  OSM       C12S            8.1934232644       -3.9976092373        7.4390622863  MEMB      8               0.0000000000
       889         8  OSM       H12S            8.9819616097       -3.3677693582        7.9036375137  MEMB      8               0.0000000000
       890         8  OSM       H12T            7.5227916482       -3.3346211009        6.8516771488  MEMB      8               0.0000000000
       891         8  OSM       C13S            8.7895974874       -4.9348189849        6.3592308953  MEMB      8               0.0000000000
       892         8  OSM       H13S            9.4281220594       -5.7355921409        6.7897764814  MEMB      8               0.0000000000
       893         8  OSM       H13T            9.3737118314       -4.2288136385        5.7309888194  MEMB      8               0.0000000000
       894         8  OSM       C14S            7.6981346432       -5.5469884331        5.5134481948  MEMB      8               0.0000000000
       895         8  OSM       H14S            7.0053621998       -4.8927669121        4.9421499487  MEMB      8               0.0000000000
       896         8  OSM       H14T            7.0478795317       -6.0282446506        6.2749480062  MEMB      8               0.0000000000
       897         8  OSM       C15S            8.2019229778       -6.5546708189        4.5958579366  MEMB      8               0.0000000000
       898         8  OSM       H15S            8.6775957095       -7.3644282933        5.1894480101  MEMB      8               0.0000000000
       899         8  OSM       H15T            9.0048883387       -6.1118031452        3.9686125938  MEMB      8               0.0000000000
       900         8  OSM       C16S            7.1470964010       -7.2141517660        3.7356621673  MEMB      8               0.0000000000
       901         8  OSM       H16S            6.3540453805       -7.6432910030        4.3846847377  MEMB      8               0.0000000000
       902         8  OSM       H16T            7.5406239978       -8.1120634016        3.2129650608  MEMB      8               0.0000000000
       903         8  OSM       C17S            6.4377907475       -6.2817980999        2.6735181796  MEMB      8               0.0000000000
       904         8  OSM       H17S            5.5169402342       -5.9682822765        3.2102325697  MEMB      8               0.0000000000
       905         8  OSM       H17T            6.1644020729       -6.8765511379        1.7758271431  MEMB      8               0.0000000000
       906         8  OSM       C18S            7.1330457586       -5.0405059303        2.1089251236  MEMB      8               0.0000000000
       907         8  OSM       H18S            6.4155876248       -4.3597134302        1.6028657977  MEMB      8               0.0000000000
       908         8  OSM       H18T            7.9477609661       -5.4017956734        1.4455781036  MEMB      8               0.0000000000
       909         8  OSM       H18U            7.5594006823       -4.3301406763        2.8491454359  MEMB      8               0.0000000000
       910         8  OSM       C1F             6.5701011548       -8.8464589188       14.4836792937  MEMB      8               0.0000000000
       911         8  OSM       OF              5.8563391135       -7.9241527454       14.2987321827  MEMB      8               0.0000000000
       912         8  OSM       C2F             6.2682848715      -10.1797873639       13.7812737578  MEMB      8               0.0000000000
       913         8  OSM       H2F             5.7282308223      -10.8455620852       14.4879612371  MEMB      8               0.0000000000
       914         8  OSM       H2G             7.2302747929      -10.5635551025       13.3792555564  MEMB      8               0.0000000000
       915         8  OSM       C3F             5.3928048490       -9.8949346731       12.5671581564  MEMB      8               0.0000000000
       916         8  OSM       H3F             5.8778242426       -9.1432854724       11.9082945612  MEMB      8               0.0000000000
       917         8  OSM       H3G             4.4832058125       -9.2798181976       12.7362214256  MEMB      8               0.0000000000
       918         8  OSM       C4F             4.9288673746      -11.1871333459       11.8720678395  MEMB      8               0.0000000000
       919         8  OSM       H4F             4.4550247389      -11.7344320457       12.7148356400  MEMB      8               0.0000000000
       920         8  OSM       H4G             5.8101448597      -11.8030626653       11.5922425285  MEMB      8               0.0000000000
       921         8  OSM       C5F             4.1385333543      -11.0796938447       10.5730289343  MEMB      8               0.0000000000
       922         8  OSM       H5F             3.2351726995      -10.4343744054       10.6157292693  MEMB      8               0.0000000000
       923         8  OSM       H5G             3.8730754649      -12.1187978634       10.2830021650  MEMB      8               0.0000000000
       924         8  OSM       C6F             4.9477900980      -10.6808810018        9.3499943702  MEMB      8               0.0000000000
       925         8  OSM       H6F             5.3725226291       -9.6641643553        9.4921572260  MEMB      8               0.0000000000
       926         8  OSM       H6G             4.2637542987      -10.7581521646        8.4779596333  MEMB      8               0.0000000000
       927         8  OSM       C7F             6.0966617014      -11.5476519291        8.9707652450  MEMB      8               0.0000000000
       928         8  OSM       H7F             5.7829191251      -12.6071173483        9.0866096769  MEMB      8               0.0000000000
       929         8  OSM       H7G             6.8345177362      -11.3920622053        9.7866577100  MEMB      8               0.0000000000
       930         8  OSM       C8F             6.5520353669      -11.3908097333        7.5167683541  MEMB      8               0.0000000000
       931         8  OSM       H8F             5.7623392262      -11.7241963412        6.8099768131  MEMB      8               0.0000000000
       932         8  OSM       H8G             7.3918571650      -12.0887463571        7.3120620818  MEMB      8               0.0000000000
       933         8  OSM       C9F             6.8183949331       -9.9464775707        7.2047066401  MEMB      8               0.0000000000
       934         8  OSM       H9F             5.9720717207       -9.2722429300        7.0068563787  MEMB      8               0.0000000000
       935         8  OSM       C10F            8.0461435344       -9.4814637712        7.1139536073  MEMB      8               0.0000000000
       936         8  OSM       H10F            8.2843645138       -8.4137876490        6.9985479170  MEMB      8               0.0000000000
       937         8  OSM       C11F            9.3505908341      -10.1563857757        7.2436367525  MEMB      8               0.0000000000
       938         8  OSM       H11F            9.3727734887      -11.2130883633        7.5859941849  MEMB      8               0.0000000000
       939         8  OSM       H11G           10.0139413806       -9.5926393793        7.9339107378  MEMB      8               0.0000000000
       940         8  OSM       C12F           10.0153664075      -10.2595029635        5.8758089931  MEMB      8               0.0000000000
       941         8  OSM       H12F           11.0300880344      -10.6988790454        5.9835569628  MEMB      8               0.0000000000
       942         8  OSM       H12G           10.1705830661       -9.2513376417        5.4355454288  MEMB      8               0.0000000000
       943         8  OSM       C13F            9.2627976966      -11.0406653753        4.7851776979  MEMB      8               0.0000000000
       944         8  OSM       H13F            8.2858989277      -10.5872861725        4.5123451125  MEMB      8               0.0000000000
       945         8  OSM       H13G            9.1365414361      -12.0847891405        5.1432079252  MEMB      8               0.0000000000
       946         8  OSM       C14F            9.9553075454      -10.9106448710        3.4509900316  MEMB      8               0.0000000000
       947         8  OSM       H14F           11.0000698998      -11.1940135945        3.7009815288  MEMB      8               0.0000000000
       948         8  OSM       H14G           10.1739073520       -9.8519543686        3.1946521782  MEMB      8               0.0000000000
       949         8  OSM       C15F            9.3469121706      -11.7529021347        2.2603343525  MEMB      8               0.0000000000
       950         8  OSM       H15F            8.3784340480      -11.2453049122        2.0635714773  MEMB      8               0.0000000000
       951         8  OSM       H15G            9.0882945235      -12.7406792073        2.6982099323  MEMB      8               0.0000000000
       952         8  OSM       C16F           10.2515763145      -11.6797230077        1.0577236113  MEMB      8               0.0000000000
       953         8  OSM       H16F            9.9211849665      -12.3610415668        0.2447254133  MEMB      8               0.0000000000
       954         8  OSM       H16G           11.3200311302      -11.9345996963        1.2243438898  MEMB      8               0.0000000000
       955         8  OSM       C17F           10.2756338835      -10.2250259434        0.4699076360  MEMB      8               0.0000000000
       956         8  OSM       H17F           11.2111228969       -9.9354500786       -0.0548082324  MEMB      8               0.0000000000
       957         8  OSM       H17G           10.2226775946       -9.4863223684        1.2980596181  MEMB      8               0.0000000000
       958         8  OSM       C18F            9.1658005740       -9.9052432277       -0.5703975787  MEMB      8               0.0000000000
       959         8  OSM       H18F            9.1410911637       -8.8224587022       -0.8179621282  MEMB      8               0.0000000000
       960         8  OSM       H18G            8.1715001950      -10.1627443297       -0.1468637481  MEMB      8               0.0000000000
       961         8  OSM       H18H            9.2139364523      -10.4470326143       -1.5391435149  MEMB      8               0.0000000000
       962         9  SAPE      N             -11.0667671093       -4.3408084763       19.3764830133  MEMB      9               0.0000000000
       963         9  SAPE      HN1           -10.0437572199       -4.5261143608       19.4031747356  MEMB      9               0.0000000000
       964         9  SAPE      HN2           -11.4312244047       -3.4837561662       18.9136306476  MEMB      9               0.0000000000
       965         9  SAPE      HN3           -11.4653125193       -4.2322223735       20.3309308187  MEMB      9               0.0000000000
       966         9  SAPE      C12           -11.5143859098       -5.6536601965       18.7458561046  MEMB      9               0.0000000000
       967         9  SAPE      H12A          -10.7780059577       -5.9094604307       17.9542553186  MEMB      9               0.0000000000
       968         9  SAPE      H12B          -12.4359576130       -5.3858201325       18.1861346902  MEMB      9               0.0000000000
       969         9  SAPE      C11           -11.6648689889       -6.7095936316       19.8311888724  MEMB      9               0.0000000000
       970         9  SAPE      H11A          -12.1874794116       -7.5801093926       19.3801882347  MEMB      9               0.0000000000
       971         9  SAPE      H11B          -12.5177656887       -6.3443111898       20.4423002177  MEMB      9               0.0000000000
       972         9  SAPE      P              -9.5641163620       -8.2346705276       20.4795471462  MEMB      9               0.0000000000
       973         9  SAPE      O13            -8.1880940344       -7.7463125235       20.7827882226  MEMB      9               0.0000000000
       974         9  SAPE      O14           -10.0258943858       -9.4034734668       21.2589155712  MEMB      9               0.0000000000
       975         9  SAPE      O12           -10.5407435780       -6.9166008700       20.5985171723  MEMB      9               0.0000000000
       976         9  SAPE      O11            -9.7252912755       -8.5655478504       18.9267038914  MEMB      9               0.0000000000
       977         9  SAPE      C1             -8.8429118580       -9.5203358231       18.3553784205  MEMB      9               0.0000000000
       978         9  SAPE      HA             -7.8160051454       -9.1153281213       18.2298702804  MEMB      9               0.0000000000
       979         9  SAPE      HB             -8.7210185307      -10.3970556105       19.0268138796  MEMB      9               0.0000000000
       980         9  SAPE      C2             -9.4104044137      -10.0544432852       16.9644508712  MEMB      9               0.0000000000
       981         9  SAPE      HS             -8.7936180592      -10.9496749115       16.7354185620  MEMB      9               0.0000000000
       982         9  SAPE      O21            -9.3372491037       -8.9643329981       16.0067038651  MEMB      9               0.0000000000
       983         9  SAPE      C21            -8.0432414880       -8.6401850750       15.6908422178  MEMB      9               0.0000000000
       984         9  SAPE      O22            -7.0395030094       -9.2515146962       15.9783338836  MEMB      9               0.0000000000
       985         9  SAPE      C22            -8.0341261530       -7.2806508196       14.9718029415  MEMB      9               0.0000000000
       986         9  SAPE      H2R            -8.4505822139       -6.5739047361       15.7210663580  MEMB      9               0.0000000000
       987         9  SAPE      H2S            -6.9849427029       -6.9208035106       14.9082013087  MEMB      9               0.0000000000
       988         9  SAPE      C3            -10.8605065622      -10.6253360213       17.0883320138  MEMB      9               0.0000000000
       989         9  SAPE      HX            -10.9648361556      -11.3741277937       17.9024249050  MEMB      9               0.0000000000
       990         9  SAPE      HY            -10.9657654677      -11.1935792594       16.1394687004  MEMB      9               0.0000000000
       991         9  SAPE      O31           -11.9363649544       -9.6489936551       17.1581915854  MEMB      9               0.0000000000
       992         9  SAPE      C31           -12.7462640217       -9.4729093089       16.0683823638  MEMB      9               0.0000000000
       993         9  SAPE      O32           -12.8944414517      -10.1626348511       15.0982391405  MEMB      9               0.0000000000
       994         9  SAPE      C32           -13.4294676213       -8.0403714045       16.3454216899  MEMB      9               0.0000000000
       995         9  SAPE      H2X           -12.7383261309       -7.4016245432       16.9358850602  MEMB      9               0.0000000000
       996         9  SAPE      H2Y           -14.3625392401       -8.3118684804       16.8839265725  MEMB      9               0.0000000000
       997         9  SAPE      C23            -8.9134707259       -7.4361636292       13.6739928909  MEMB      9               0.0000000000
       998         9  SAPE      H3R            -8.9517732039       -6.3778555141       13.3380794583  MEMB      9               0.0000000000
       999         9  SAPE      H3S            -9.9111290293       -7.9051208806       13.8121163824  MEMB      9               0.0000000000
      1000         9  SAPE      C24            -8.1272818318       -8.2440796548       12.5706355907  MEMB      9               0.0000000000
      1001         9  SAPE      H4R            -8.8713581340       -8.4442953237       11.7702697976  MEMB      9               0.0000000000
      1002         9  SAPE      H4S            -8.0492779896       -9.2479391436       13.0402128913  MEMB      9               0.0000000000
      1003         9  SAPE      C25            -6.8363010032       -7.7823904702       12.0411124384  MEMB      9               0.0000000000
      1004         9  SAPE      H5R            -6.0989142467       -7.6895713841       12.8520659912  MEMB      9               0.0000000000
      1005         9  SAPE      C26            -6.4439376124       -7.5896028684       10.7764368253  MEMB      9               0.0000000000
      1006         9  SAPE      H6R            -5.4545072564       -7.1561374743       10.5687458854  MEMB      9               0.0000000000
      1007         9  SAPE      C27            -7.4244574668       -7.7677498923        9.5883343210  MEMB      9               0.0000000000
      1008         9  SAPE      H7R            -8.4556056682       -8.0345239729        9.9043816509  MEMB      9               0.0000000000
      1009         9  SAPE      H7S            -7.0865868535       -8.6159661763        8.9553314476  MEMB      9               0.0000000000
      1010         9  SAPE      C28            -7.5921309445       -6.4176672610        8.9033793440  MEMB      9               0.0000000000
      1011         9  SAPE      H8R            -6.7720494255       -6.3307301698        8.1754313266  MEMB      9               0.0000000000
      1012         9  SAPE      C29            -8.3392721330       -5.3463818428        9.2279544328  MEMB      9               0.0000000000
      1013         9  SAPE      H9R            -8.3037717203       -4.4909342368        8.5373389627  MEMB      9               0.0000000000
      1014         9  SAPE      C210           -9.2692956426       -5.1546341394       10.3843580418  MEMB      9               0.0000000000
      1015         9  SAPE      H10R           -8.7090610209       -4.6768775614       11.2163478936  MEMB      9               0.0000000000
      1016         9  SAPE      H10S           -9.6873382402       -6.0897046488       10.8147120028  MEMB      9               0.0000000000
      1017         9  SAPE      C211          -10.4060613057       -4.1569727471       10.3079542362  MEMB      9               0.0000000000
      1018         9  SAPE      H11R          -10.6978149945       -3.7145850990       11.2718908361  MEMB      9               0.0000000000
      1019         9  SAPE      C212          -11.2446539566       -3.8757753911        9.3010714211  MEMB      9               0.0000000000
      1020         9  SAPE      H12R          -12.0589022453       -3.1416595664        9.3909249528  MEMB      9               0.0000000000
      1021         9  SAPE      C213          -11.2408277864       -4.5276883201        7.8857220518  MEMB      9               0.0000000000
      1022         9  SAPE      H13R          -10.3977776105       -5.2431036382        7.7772390698  MEMB      9               0.0000000000
      1023         9  SAPE      H13S          -11.2232403779       -3.6186625678        7.2472209386  MEMB      9               0.0000000000
      1024         9  SAPE      C214          -12.5452208844       -5.3118480358        7.5368676680  MEMB      9               0.0000000000
      1025         9  SAPE      H14R          -13.2741311572       -5.3524897211        8.3596902841  MEMB      9               0.0000000000
      1026         9  SAPE      C215          -12.8345870931       -5.9173232673        6.3959549545  MEMB      9               0.0000000000
      1027         9  SAPE      H15R          -13.8662788002       -6.2730914198        6.2579646317  MEMB      9               0.0000000000
      1028         9  SAPE      C216          -11.8875252497       -5.9395090093        5.1457886453  MEMB      9               0.0000000000
      1029         9  SAPE      H16R          -11.3534211974       -6.8888014662        5.3646442741  MEMB      9               0.0000000000
      1030         9  SAPE      H16S          -11.2076641340       -5.0628011615        5.0866847393  MEMB      9               0.0000000000
      1031         9  SAPE      C217          -12.5823307024       -5.9973048237        3.7632103212  MEMB      9               0.0000000000
      1032         9  SAPE      H17R          -12.6803921786       -4.9494320418        3.4073066266  MEMB      9               0.0000000000
      1033         9  SAPE      H17S          -13.6281088199       -6.3310672281        3.9342993667  MEMB      9               0.0000000000
      1034         9  SAPE      C218          -11.8302295803       -6.7678063406        2.7585414997  MEMB      9               0.0000000000
      1035         9  SAPE      H18R          -10.7688602416       -6.4395640295        2.7670934007  MEMB      9               0.0000000000
      1036         9  SAPE      H18S          -12.0793960504       -6.4793894757        1.7149644454  MEMB      9               0.0000000000
      1037         9  SAPE      C219          -11.9224014670       -8.2795950321        2.9044857596  MEMB      9               0.0000000000
      1038         9  SAPE      H19R          -12.8845017499       -8.6229882855        3.3412521738  MEMB      9               0.0000000000
      1039         9  SAPE      H19S          -11.1050801349       -8.5809001900        3.5940672923  MEMB      9               0.0000000000
      1040         9  SAPE      C220          -11.7306699885       -9.0896518743        1.5889433232  MEMB      9               0.0000000000
      1041         9  SAPE      H20R          -12.6140938641       -9.0120145362        0.9197226040  MEMB      9               0.0000000000
      1042         9  SAPE      H20S          -11.8263315184      -10.1806568409        1.7756999010  MEMB      9               0.0000000000
      1043         9  SAPE      H20T          -10.7628710624       -8.8627425604        1.0927604874  MEMB      9               0.0000000000
      1044         9  SAPE      C33           -13.6896853543       -7.1585982102       15.0168655804  MEMB      9               0.0000000000
      1045         9  SAPE      H3X           -12.7243341353       -6.6895613488       14.7297729186  MEMB      9               0.0000000000
      1046         9  SAPE      H3Y           -14.4011319165       -6.3875502112       15.3824464148  MEMB      9               0.0000000000
      1047         9  SAPE      C34           -14.4053171334       -7.7702504685       13.7569780429  MEMB      9               0.0000000000
      1048         9  SAPE      H4X           -15.2168536567       -8.4797233079       14.0260094752  MEMB      9               0.0000000000
      1049         9  SAPE      H4Y           -13.6403970804       -8.4163706879       13.2755776629  MEMB      9               0.0000000000
      1050         9  SAPE      C35           -14.8959394688       -6.7405381392       12.6796636045  MEMB      9               0.0000000000
      1051         9  SAPE      H5X           -15.5283393017       -5.9385885851       13.1170063691  MEMB      9               0.0000000000
      1052         9  SAPE      H5Y           -15.6036662489       -7.3829330814       12.1132960999  MEMB      9               0.0000000000
      1053         9  SAPE      C36           -13.8149794887       -6.0644265030       11.8291045298  MEMB      9               0.0000000000
      1054         9  SAPE      H6X           -13.4037455917       -5.1939746489       12.3836510972  MEMB      9               0.0000000000
      1055         9  SAPE      H6Y           -14.4392156388       -5.5463755504       11.0699786806  MEMB      9               0.0000000000
      1056         9  SAPE      C37           -12.6996258720       -7.0463694071       11.2743714111  MEMB      9               0.0000000000
      1057         9  SAPE      H7X           -12.1251497902       -7.4207101701       12.1485380042  MEMB      9               0.0000000000
      1058         9  SAPE      H7Y           -12.0680744469       -6.3634142799       10.6668876756  MEMB      9               0.0000000000
      1059         9  SAPE      C38           -13.2495913644       -8.1939719492       10.3971935882  MEMB      9               0.0000000000
      1060         9  SAPE      H8X           -14.0906085808       -7.8247201227        9.7721623612  MEMB      9               0.0000000000
      1061         9  SAPE      H8Y           -13.5469713239       -9.1078514631       10.9546073766  MEMB      9               0.0000000000
      1062         9  SAPE      C39           -12.1820839977       -8.7766012100        9.5043727273  MEMB      9               0.0000000000
      1063         9  SAPE      H9X           -11.2486635708       -9.0707716971       10.0302152829  MEMB      9               0.0000000000
      1064         9  SAPE      H9Y           -11.8629669987       -7.8945343216        8.9090214739  MEMB      9               0.0000000000
      1065         9  SAPE      C310          -12.6443091662       -9.9772214866        8.5788163931  MEMB      9               0.0000000000
      1066         9  SAPE      H10X          -13.3386332453       -9.6193472618        7.7887772119  MEMB      9               0.0000000000
      1067         9  SAPE      H10Y          -13.2456871753      -10.7244767850        9.1394182241  MEMB      9               0.0000000000
      1068         9  SAPE      C311          -11.4326734860      -10.6242194188        7.8591529186  MEMB      9               0.0000000000
      1069         9  SAPE      H11X          -11.7967840816      -11.3614490416        7.1120004169  MEMB      9               0.0000000000
      1070         9  SAPE      H11Y          -10.8750195771      -11.2796828899        8.5617986860  MEMB      9               0.0000000000
      1071         9  SAPE      C312          -10.6127883426       -9.6614205730        7.1135304491  MEMB      9               0.0000000000
      1072         9  SAPE      H12X           -9.9622700654       -9.1786346535        7.8738368934  MEMB      9               0.0000000000
      1073         9  SAPE      H12Y          -11.2882301186       -8.8747075211        6.7145548533  MEMB      9               0.0000000000
      1074         9  SAPE      C313           -9.8044848449      -10.2992899888        6.0331321481  MEMB      9               0.0000000000
      1075         9  SAPE      H13X          -10.4077824365      -10.2000464827        5.1054987183  MEMB      9               0.0000000000
      1076         9  SAPE      H13Y           -9.7159088840      -11.3985084281        6.1680183250  MEMB      9               0.0000000000
      1077         9  SAPE      C314           -8.5000990347       -9.4425514217        5.8695929664  MEMB      9               0.0000000000
      1078         9  SAPE      H14X           -7.9062643737       -9.4895824863        6.8073929749  MEMB      9               0.0000000000
      1079         9  SAPE      H14Y           -8.7735964588       -8.3833903910        5.6754331271  MEMB      9               0.0000000000
      1080         9  SAPE      C315           -7.5691137365       -9.7203157437        4.6652311801  MEMB      9               0.0000000000
      1081         9  SAPE      H15X           -8.2132462256      -10.2563845124        3.9358167848  MEMB      9               0.0000000000
      1082         9  SAPE      H15Y           -6.8008245368      -10.3533877850        5.1584580004  MEMB      9               0.0000000000
      1083         9  SAPE      C316           -6.9026035623       -8.4566776807        4.0734286974  MEMB      9               0.0000000000
      1084         9  SAPE      H16X           -6.1974663769       -8.1265306794        4.8659595890  MEMB      9               0.0000000000
      1085         9  SAPE      H16Y           -7.6353779441       -7.6270608404        3.9780427272  MEMB      9               0.0000000000
      1086         9  SAPE      C317           -6.0988403167       -8.6058735513        2.8687241459  MEMB      9               0.0000000000
      1087         9  SAPE      H17X           -6.7120085334       -8.8602825764        1.9778709539  MEMB      9               0.0000000000
      1088         9  SAPE      H17Y           -5.3605560662       -9.3725582931        3.1872396568  MEMB      9               0.0000000000
      1089         9  SAPE      C318           -5.1160138894       -7.4762912067        2.5314104762  MEMB      9               0.0000000000
      1090         9  SAPE      H18X           -4.5379657549       -7.6660056051        1.6017913183  MEMB      9               0.0000000000
      1091         9  SAPE      H18Y           -4.4321242274       -7.3548657370        3.3985144450  MEMB      9               0.0000000000
      1092         9  SAPE      H18Z           -5.5584320929       -6.4643515268        2.4107240496  MEMB      9               0.0000000000
      1093        10  OSM       N              -7.6798380938      -11.0768693291       22.8294654612  MEMB      10              0.0000000000
      1094        10  OSM       C15            -6.5619295020      -12.0685838615       23.1177885655  MEMB      10              0.0000000000
      1095        10  OSM       H15A           -6.9061151620      -12.8439240347       23.7862075111  MEMB      10              0.0000000000
      1096        10  OSM       H15B           -5.8149661712      -11.3970591398       23.5146516876  MEMB      10              0.0000000000
      1097        10  OSM       H15C           -6.2941940715      -12.5129718145       22.1705625435  MEMB      10              0.0000000000
      1098        10  OSM       C14            -8.9267905831      -11.9064966066       22.5000732854  MEMB      10              0.0000000000
      1099        10  OSM       H14A           -9.2508034013      -12.5625414716       23.2944415549  MEMB      10              0.0000000000
      1100        10  OSM       H14B           -8.7315095654      -12.5028048089       21.6210500531  MEMB      10              0.0000000000
      1101        10  OSM       H14C           -9.6466947363      -11.1847327937       22.1434289885  MEMB      10              0.0000000000
      1102        10  OSM       C13            -8.0304056194      -10.3790208802       24.1328135274  MEMB      10              0.0000000000
      1103        10  OSM       H13A           -8.8353177226       -9.7289104969       23.8231799184  MEMB      10              0.0000000000
      1104        10  OSM       H13B           -7.2274566088       -9.7882711662       24.5483705402  MEMB      10              0.0000000000
      1105        10  OSM       H13C           -8.3576882638      -11.1505265804       24.8140366830  MEMB      10              0.0000000000
      1106        10  OSM       C12            -7.2858874696      -10.0601241069       21.8608933330  MEMB      10              0.0000000000
      1107        10  OSM       H12A           -6.3936430437       -9.5779540690       22.2321237750  MEMB      10              0.0000000000
      1108        10  OSM       H12B           -8.0308843369       -9.2783772721       21.8767606107  MEMB      10              0.0000000000
      1109        10  OSM       C11            -6.9842673377      -10.5092916982       20.3621211870  MEMB      10              0.0000000000
      1110        10  OSM       H11A           -6.9342750071       -9.5634936175       19.7813564203  MEMB      10              0.0000000000
      1111        10  OSM       H11B           -7.7933900510      -11.2010802969       20.0442061771  MEMB      10              0.0000000000
      1112        10  OSM       P              -5.4229781712      -12.2080887265       19.2463468936  MEMB      10              0.0000000000
      1113        10  OSM       O13            -3.9639692155      -12.3622253548       19.0528582510  MEMB      10              0.0000000000
      1114        10  OSM       O14            -6.2055590930      -13.4007743807       19.6266406309  MEMB      10              0.0000000000
      1115        10  OSM       O11            -6.1444337248      -11.5191947549       17.9153393834  MEMB      10              0.0000000000
      1116        10  OSM       O12            -5.7395563510      -11.0876789035       20.3556594830  MEMB      10              0.0000000000
      1117        10  OSM       C1S            -6.0223678896      -12.2483234374       16.7481479857  MEMB      10              0.0000000000
      1118        10  OSM       H1S            -6.5024389330      -13.2437098359       16.8624218196  MEMB      10              0.0000000000
      1119        10  OSM       H1T            -4.9952260515      -12.5648527079       16.4668833095  MEMB      10              0.0000000000
      1120        10  OSM       NF             -5.7982079894      -10.5117496673       15.0164118389  MEMB      10              0.0000000000
      1121        10  OSM       HNF            -6.1818283399       -9.6074295264       14.8459732607  MEMB      10              0.0000000000
      1122        10  OSM       C2S            -6.6984816429      -11.4943150612       15.5885527137  MEMB      10              0.0000000000
      1123        10  OSM       H2S            -6.9185329182      -12.1992972245       14.7585536925  MEMB      10              0.0000000000
      1124        10  OSM       C3S            -7.9779338945      -10.7228854041       15.9797585349  MEMB      10              0.0000000000
      1125        10  OSM       H3S            -7.6861077021       -9.8256474946       16.5663783347  MEMB      10              0.0000000000
      1126        10  OSM       O3             -8.8285334135      -11.4358230954       16.8986098807  MEMB      10              0.0000000000
      1127        10  OSM       HO3            -8.4245120525      -12.2548950613       17.1943931075  MEMB      10              0.0000000000
      1128        10  OSM       C4S            -8.6994346677      -10.2587034427       14.6672169435  MEMB      10              0.0000000000
      1129        10  OSM       H4S            -8.6146251107       -9.1975084449       14.3903192536  MEMB      10              0.0000000000
      1130        10  OSM       C5S            -9.4610912853      -11.1466845215       13.9550785409  MEMB      10              0.0000000000
      1131        10  OSM       H5S            -9.5710140678      -12.1955313494       14.2678684649  MEMB      10              0.0000000000
      1132        10  OSM       C6S           -10.0994756063      -10.7501320444       12.6263080405  MEMB      10              0.0000000000
      1133        10  OSM       H6S            -9.8927548206       -9.6899127668       12.3664575120  MEMB      10              0.0000000000
      1134        10  OSM       H6T           -11.1636285983      -11.0693218268       12.6305331533  MEMB      10              0.0000000000
      1135        10  OSM       C7S            -9.4129087467      -11.5465367363       11.4804001060  MEMB      10              0.0000000000
      1136        10  OSM       H7S            -8.3084911552      -11.4376921648       11.5327026354  MEMB      10              0.0000000000
      1137        10  OSM       H7T            -9.8779632495      -11.3013435929       10.5016630915  MEMB      10              0.0000000000
      1138        10  OSM       C8S            -9.4950999205      -13.0886462889       11.6570664499  MEMB      10              0.0000000000
      1139        10  OSM       H8S           -10.5661136882      -13.3663753477       11.7576517921  MEMB      10              0.0000000000
      1140        10  OSM       H8T            -8.8465515703      -13.5054703773       12.4570437150  MEMB      10              0.0000000000
      1141        10  OSM       C9S            -9.0510679984      -13.9068538050       10.4119476339  MEMB      10              0.0000000000
      1142        10  OSM       H9S            -9.7637145049      -13.6825285325        9.5896738763  MEMB      10              0.0000000000
      1143        10  OSM       H9T            -9.3244437263      -14.9794742320       10.5071986485  MEMB      10              0.0000000000
      1144        10  OSM       C10S           -7.6059331189      -13.6596200670        9.9185335261  MEMB      10              0.0000000000
      1145        10  OSM       H10S           -6.8674563371      -14.0127044433       10.6697347213  MEMB      10              0.0000000000
      1146        10  OSM       H10T           -7.4043717691      -12.5674770680        9.9488270620  MEMB      10              0.0000000000
      1147        10  OSM       C11S           -7.2316105341      -14.1840453295        8.5993551481  MEMB      10              0.0000000000
      1148        10  OSM       H11S           -7.8263789079      -13.8615724289        7.7181160149  MEMB      10              0.0000000000
      1149        10  OSM       H11T           -7.1455769639      -15.2877818437        8.6925455844  MEMB      10              0.0000000000
      1150        10  OSM       C12S           -5.6910618849      -13.9057648134        8.3077008696  MEMB      10              0.0000000000
      1151        10  OSM       H12S           -5.0513654226      -14.4792861809        9.0121030149  MEMB      10              0.0000000000
      1152        10  OSM       H12T           -5.4533311892      -12.8457017595        8.5402341847  MEMB      10              0.0000000000
      1153        10  OSM       C13S           -5.4661128353      -14.3774692443        6.9033896279  MEMB      10              0.0000000000
      1154        10  OSM       H13S           -5.9945971269      -15.3505785833        6.8134789847  MEMB      10              0.0000000000
      1155        10  OSM       H13T           -4.3690362623      -14.4667784107        6.7524988370  MEMB      10              0.0000000000
      1156        10  OSM       C14S           -6.1059775944      -13.4745896537        5.7563152246  MEMB      10              0.0000000000
      1157        10  OSM       H14S           -5.7440382849      -12.4259905359        5.8176405683  MEMB      10              0.0000000000
      1158        10  OSM       H14T           -7.2117028154      -13.4376375339        5.8579383562  MEMB      10              0.0000000000
      1159        10  OSM       C15S           -5.9751637219      -14.0344072079        4.3111309689  MEMB      10              0.0000000000
      1160        10  OSM       H15S           -6.2192435163      -15.1180904696        4.2917255547  MEMB      10              0.0000000000
      1161        10  OSM       H15T           -4.8664607952      -14.0372852342        4.2397823845  MEMB      10              0.0000000000
      1162        10  OSM       C16S           -6.7812286231      -13.2647981985        3.2532619820  MEMB      10              0.0000000000
      1163        10  OSM       H16S           -6.3451459871      -12.2465013911        3.1682673031  MEMB      10              0.0000000000
      1164        10  OSM       H16T           -7.8308844393      -13.0528401788        3.5492656817  MEMB      10              0.0000000000
      1165        10  OSM       C17S           -6.8492390686      -14.0606698423        1.9357450357  MEMB      10              0.0000000000
      1166        10  OSM       H17S           -7.3847071413      -13.3893445105        1.2308211495  MEMB      10              0.0000000000
      1167        10  OSM       H17T           -7.5430667784      -14.9013473149        2.1506524453  MEMB      10              0.0000000000
      1168        10  OSM       C18S           -5.4670617563      -14.4986273730        1.4039766385  MEMB      10              0.0000000000
      1169        10  OSM       H18S           -5.4481952502      -14.9010122141        0.3685772758  MEMB      10              0.0000000000
      1170        10  OSM       H18T           -4.9287148880      -15.3035007593        1.9486622418  MEMB      10              0.0000000000
      1171        10  OSM       H18U           -4.8231424173      -13.6119638187        1.5870531590  MEMB      10              0.0000000000
      1172        10  OSM       C1F            -4.7756790958      -10.8760707234       14.2736392299  MEMB      10              0.0000000000
      1173        10  OSM       OF             -4.5460020515      -12.0487873152       13.8666574470  MEMB      10              0.0000000000
      1174        10  OSM       C2F            -3.8353713307       -9.7947378397       13.8028589543  MEMB      10              0.0000000000
      1175        10  OSM       H2F            -2.7895164575       -9.9467372498       14.1455028820  MEMB      10              0.0000000000
      1176        10  OSM       H2G            -4.1900676597       -8.7535599652       13.9592558082  MEMB      10              0.0000000000
      1177        10  OSM       C3F            -3.9050270083       -9.7923689652       12.2404372451  MEMB      10              0.0000000000
      1178        10  OSM       H3F            -3.4627233139      -10.6885309008       11.7550690009  MEMB      10              0.0000000000
      1179        10  OSM       H3G            -3.1772189523       -8.9910924258       11.9902914274  MEMB      10              0.0000000000
      1180        10  OSM       C4F            -5.3298324386       -9.4189777205       11.6376073999  MEMB      10              0.0000000000
      1181        10  OSM       H4F            -5.5490712295       -8.3382060224       11.7724695951  MEMB      10              0.0000000000
      1182        10  OSM       H4G            -6.0428255525      -10.1248683481       12.1147654781  MEMB      10              0.0000000000
      1183        10  OSM       C5F            -5.3492627115       -9.7669547664       10.2012051565  MEMB      10              0.0000000000
      1184        10  OSM       H5F            -5.0728502094      -10.8257219178       10.0090350625  MEMB      10              0.0000000000
      1185        10  OSM       H5G            -4.5591071532       -9.0577746502        9.8740370187  MEMB      10              0.0000000000
      1186        10  OSM       C6F            -6.7436936791       -9.6219908906        9.5826589972  MEMB      10              0.0000000000
      1187        10  OSM       H6F            -7.0409868036       -8.5535355343        9.6485453163  MEMB      10              0.0000000000
      1188        10  OSM       H6G            -7.5120824289      -10.3108486607        9.9942109976  MEMB      10              0.0000000000
      1189        10  OSM       C7F            -6.6046749989       -9.9234729926        8.1203101578  MEMB      10              0.0000000000
      1190        10  OSM       H7F            -6.4656019310      -11.0211679991        8.0200840583  MEMB      10              0.0000000000
      1191        10  OSM       H7G            -5.7489887038       -9.4255637042        7.6161202397  MEMB      10              0.0000000000
      1192        10  OSM       C8F            -7.7507684059       -9.5624313310        7.1961176081  MEMB      10              0.0000000000
      1193        10  OSM       H8F            -7.6921279475       -8.4557430075        7.2743684777  MEMB      10              0.0000000000
      1194        10  OSM       H8G            -8.7637259000       -9.8076343933        7.5809732662  MEMB      10              0.0000000000
      1195        10  OSM       C9F            -7.5789380234      -10.0379977381        5.7457931575  MEMB      10              0.0000000000
      1196        10  OSM       H9F            -8.3085166402      -10.8469059706        5.5928799425  MEMB      10              0.0000000000
      1197        10  OSM       C10F           -6.8535681638       -9.5594359133        4.7084234142  MEMB      10              0.0000000000
      1198        10  OSM       H10F           -6.8761652958      -10.1565474148        3.7848718698  MEMB      10              0.0000000000
      1199        10  OSM       C11F           -5.8687107986       -8.3698704489        4.7032133044  MEMB      10              0.0000000000
      1200        10  OSM       H11F           -4.8081449100       -8.6579846192        4.8660358010  MEMB      10              0.0000000000
      1201        10  OSM       H11G           -6.2388884421       -7.6036193356        5.4174601558  MEMB      10              0.0000000000
      1202        10  OSM       C12F           -5.8610878617       -7.6848064493        3.3167931568  MEMB      10              0.0000000000
      1203        10  OSM       H12F           -5.6305487713       -8.4001809368        2.4986179104  MEMB      10              0.0000000000
      1204        10  OSM       H12G           -4.9854786161       -7.0014224106        3.3416039754  MEMB      10              0.0000000000
      1205        10  OSM       C13F           -7.2362182187       -6.9352750116        3.1373691911  MEMB      10              0.0000000000
      1206        10  OSM       H13F           -7.3313102796       -6.0076241645        3.7413093779  MEMB      10              0.0000000000
      1207        10  OSM       H13G           -8.0737530021       -7.5879186860        3.4643457463  MEMB      10              0.0000000000
      1208        10  OSM       C14F           -7.7054749827       -6.5421094144        1.6671995122  MEMB      10              0.0000000000
      1209        10  OSM       H14F           -8.5492622301       -5.8925238228        1.9840310619  MEMB      10              0.0000000000
      1210        10  OSM       H14G           -8.2961476656       -7.2988906961        1.1079950657  MEMB      10              0.0000000000
      1211        10  OSM       C15F           -6.6751306929       -5.7117415548        0.7697163820  MEMB      10              0.0000000000
      1212        10  OSM       H15F           -5.8381133917       -6.3870119122        0.4909098383  MEMB      10              0.0000000000
      1213        10  OSM       H15G           -6.1201840437       -4.8732963178        1.2423305838  MEMB      10              0.0000000000
      1214        10  OSM       C16F           -7.3906475481       -5.2586613133       -0.4955162765  MEMB      10              0.0000000000
      1215        10  OSM       H16F           -6.6683857653       -4.7315933269       -1.1549536664  MEMB      10              0.0000000000
      1216        10  OSM       H16G           -8.2800855594       -4.6353109864       -0.2617305475  MEMB      10              0.0000000000
      1217        10  OSM       C17F           -7.8134811224       -6.4723428569       -1.2856002698  MEMB      10              0.0000000000
      1218        10  OSM       H17F           -8.8392982893       -6.8081134664       -1.0223919231  MEMB      10              0.0000000000
      1219        10  OSM       H17G           -7.1848927004       -7.3740729480       -1.1241043773  MEMB      10              0.0000000000
      1220        10  OSM       C18F           -7.9542234846       -6.0826813164       -2.7901866210  MEMB      10              0.0000000000
      1221        10  OSM       H18F           -8.0753768124       -6.9583193165       -3.4631670799  MEMB      10              0.0000000000
      1222        10  OSM       H18G           -7.0926429358       -5.5317698935       -3.2243494932  MEMB      10              0.0000000000
      1223        10  OSM       H18H           -8.8643867625       -5.4590120032       -2.9204214560  MEMB      10              0.0000000000
      1224        11  SOPE      N              -0.2232751339       11.7129785156       18.6023267795  MEMB      11              0.0000000000
      1225        11  SOPE      HN1            -0.1182231493       10.7410348487       18.9571364416  MEMB      11              0.0000000000
      1226        11  SOPE      HN2            -1.2214882121       11.9972663941       18.6682890562  MEMB      11              0.0000000000
      1227        11  SOPE      HN3             0.1299038222       11.7215412663       17.6241697355  MEMB      11              0.0000000000
      1228        11  SOPE      C12             0.6400950588       12.6733951057       19.4928011823  MEMB      11              0.0000000000
      1229        11  SOPE      H12A            0.4858033173       13.7190383429       19.1505363077  MEMB      11              0.0000000000
      1230        11  SOPE      H12B            1.7091006105       12.4919906814       19.2506433319  MEMB      11              0.0000000000
      1231        11  SOPE      C11             0.2992033178       12.4049607191       21.0121584347  MEMB      11              0.0000000000
      1232        11  SOPE      H11A            1.0798311264       12.8681248313       21.6527988812  MEMB      11              0.0000000000
      1233        11  SOPE      H11B            0.2924841916       11.3173566321       21.2388585012  MEMB      11              0.0000000000
      1234        11  SOPE      P              -1.2995549793       14.3411410765       21.8140334929  MEMB      11              0.0000000000
      1235        11  SOPE      O13            -1.5578086392       14.4258070095       23.2775342604  MEMB      11              0.0000000000
      1236        11  SOPE      O14            -2.2966860303       14.8255465955       20.8691994618  MEMB      11              0.0000000000
      1237        11  SOPE      O12            -1.0518107862       12.8773110504       21.4310928307  MEMB      11              0.0000000000
      1238        11  SOPE      O11             0.0722013523       15.1333327277       21.5008535192  MEMB      11              0.0000000000
      1239        11  SOPE      C1             -0.0128470567       16.5890139338       21.4407125497  MEMB      11              0.0000000000
      1240        11  SOPE      HA              0.7500297788       16.9324387962       22.1717387474  MEMB      11              0.0000000000
      1241        11  SOPE      HB             -0.9666711717       17.0981301203       21.6963315226  MEMB      11              0.0000000000
      1242        11  SOPE      C2              0.4187165980       17.1693191137       20.0377792400  MEMB      11              0.0000000000
      1243        11  SOPE      HS              0.1585660202       18.2492285206       20.0587176373  MEMB      11              0.0000000000
      1244        11  SOPE      O21            -0.3130549245       16.6264736606       18.9119540470  MEMB      11              0.0000000000
      1245        11  SOPE      C21            -1.5660763005       16.8625651032       18.7750669194  MEMB      11              0.0000000000
      1246        11  SOPE      O22            -2.2704778641       17.6753909479       19.3928152222  MEMB      11              0.0000000000
      1247        11  SOPE      C22            -2.1539695215       15.7464792827       17.8476841961  MEMB      11              0.0000000000
      1248        11  SOPE      H2R            -3.1261006950       15.3822884254       18.2434707464  MEMB      11              0.0000000000
      1249        11  SOPE      H2S            -1.4453214926       14.8910377613       17.8666259785  MEMB      11              0.0000000000
      1250        11  SOPE      C3              1.9496261233       17.0066595009       19.7090085955  MEMB      11              0.0000000000
      1251        11  SOPE      HX              2.1078169043       15.9652212352       20.0621416112  MEMB      11              0.0000000000
      1252        11  SOPE      HY              2.5482689576       17.7794729839       20.2369353976  MEMB      11              0.0000000000
      1253        11  SOPE      O31             2.2579414407       17.0179553897       18.2979412835  MEMB      11              0.0000000000
      1254        11  SOPE      C31             2.9697631828       15.9398091394       17.9027614502  MEMB      11              0.0000000000
      1255        11  SOPE      O32             3.4208377958       15.0535890955       18.5303604776  MEMB      11              0.0000000000
      1256        11  SOPE      C32             3.0881373877       16.0165392678       16.3429050222  MEMB      11              0.0000000000
      1257        11  SOPE      H2X             3.8784592261       16.7723279405       16.1467007879  MEMB      11              0.0000000000
      1258        11  SOPE      H2Y             2.2018891375       16.5419493402       15.9271772780  MEMB      11              0.0000000000
      1259        11  SOPE      C23            -2.2845261246       16.2751028037       16.4024069811  MEMB      11              0.0000000000
      1260        11  SOPE      H3R            -1.3045815395       16.5550194532       15.9600538833  MEMB      11              0.0000000000
      1261        11  SOPE      H3S            -2.9381078888       17.1731096944       16.4295328906  MEMB      11              0.0000000000
      1262        11  SOPE      C24            -2.7536294991       15.1675072332       15.4160912162  MEMB      11              0.0000000000
      1263        11  SOPE      H4R            -1.9332306458       14.4253663635       15.3136517513  MEMB      11              0.0000000000
      1264        11  SOPE      H4S            -3.6257228891       14.6401923423       15.8584857690  MEMB      11              0.0000000000
      1265        11  SOPE      C25            -3.2461912697       15.7533390592       14.0302543548  MEMB      11              0.0000000000
      1266        11  SOPE      H5R            -3.9751933123       16.5736136475       14.2035369915  MEMB      11              0.0000000000
      1267        11  SOPE      H5S            -2.3312310436       16.0535328118       13.4761312329  MEMB      11              0.0000000000
      1268        11  SOPE      C26            -3.8562934724       14.5850807452       13.2254896845  MEMB      11              0.0000000000
      1269        11  SOPE      H6R            -3.2703035753       13.6804909264       13.4950336925  MEMB      11              0.0000000000
      1270        11  SOPE      H6S            -4.9166296684       14.5603875213       13.5562434979  MEMB      11              0.0000000000
      1271        11  SOPE      C27            -3.9602726733       14.8991771591       11.7280431258  MEMB      11              0.0000000000
      1272        11  SOPE      H7R            -4.4365672116       15.8757239283       11.4960507271  MEMB      11              0.0000000000
      1273        11  SOPE      H7S            -2.9168823706       14.9268843338       11.3473988871  MEMB      11              0.0000000000
      1274        11  SOPE      C28            -4.8809199659       13.8559108213       11.0192807869  MEMB      11              0.0000000000
      1275        11  SOPE      H8R            -5.8800210625       13.8841985406       11.5043760854  MEMB      11              0.0000000000
      1276        11  SOPE      H8S            -4.9767027232       14.2444113820        9.9828379182  MEMB      11              0.0000000000
      1277        11  SOPE      C29            -4.3356874153       12.3991216003       11.1399521357  MEMB      11              0.0000000000
      1278        11  SOPE      H91            -4.3585704943       12.0441137032       12.1808392153  MEMB      11              0.0000000000
      1279        11  SOPE      C210           -3.8013215761       11.6891480879       10.1418475620  MEMB      11              0.0000000000
      1280        11  SOPE      H101           -3.6165601725       10.6084662028       10.2312340594  MEMB      11              0.0000000000
      1281        11  SOPE      C211           -3.6322669105       12.1703684028        8.7230895412  MEMB      11              0.0000000000
      1282        11  SOPE      H11R           -3.0508627435       11.4180578885        8.1483556805  MEMB      11              0.0000000000
      1283        11  SOPE      H11S           -3.0808884128       13.1347693852        8.7383749030  MEMB      11              0.0000000000
      1284        11  SOPE      C212           -4.9552698221       12.3404190271        7.9636603029  MEMB      11              0.0000000000
      1285        11  SOPE      H12R           -5.6193323659       13.0830868841        8.4553775781  MEMB      11              0.0000000000
      1286        11  SOPE      H12S           -5.4747119578       11.3593642759        8.0087434929  MEMB      11              0.0000000000
      1287        11  SOPE      C213           -4.7703336342       12.6942246647        6.4578405551  MEMB      11              0.0000000000
      1288        11  SOPE      H13R           -4.0643714533       13.5434686810        6.3365027018  MEMB      11              0.0000000000
      1289        11  SOPE      H13S           -5.7848719188       13.0003051763        6.1241520634  MEMB      11              0.0000000000
      1290        11  SOPE      C214           -4.2689316950       11.5597569082        5.5806616972  MEMB      11              0.0000000000
      1291        11  SOPE      H14R           -5.0984999673       10.8209077212        5.5961237406  MEMB      11              0.0000000000
      1292        11  SOPE      H14S           -3.3698894187       11.0755743943        6.0183956628  MEMB      11              0.0000000000
      1293        11  SOPE      C215           -4.0043598273       12.0569826913        4.1004878410  MEMB      11              0.0000000000
      1294        11  SOPE      H15R           -4.8455018628       12.6806866739        3.7292814428  MEMB      11              0.0000000000
      1295        11  SOPE      H15S           -3.9188252661       11.1084155177        3.5284523423  MEMB      11              0.0000000000
      1296        11  SOPE      C216           -2.6633651473       12.7626459263        3.8781766736  MEMB      11              0.0000000000
      1297        11  SOPE      H16R           -1.7590153121       12.1179647092        3.9074789615  MEMB      11              0.0000000000
      1298        11  SOPE      H16S           -2.6270918567       13.4979261073        4.7102637517  MEMB      11              0.0000000000
      1299        11  SOPE      C217           -2.7255451841       13.5833973398        2.5090566140  MEMB      11              0.0000000000
      1300        11  SOPE      H17R           -3.5536330178       14.3160370860        2.6178276339  MEMB      11              0.0000000000
      1301        11  SOPE      H17S           -2.9043803652       12.8998287543        1.6516929264  MEMB      11              0.0000000000
      1302        11  SOPE      C218           -1.3849625380       14.2382107910        2.1577994977  MEMB      11              0.0000000000
      1303        11  SOPE      H18R           -1.1272288526       15.0575326920        2.8625017578  MEMB      11              0.0000000000
      1304        11  SOPE      H18S           -1.5440940978       14.6732156598        1.1479628928  MEMB      11              0.0000000000
      1305        11  SOPE      H18T           -0.5265713963       13.5371277460        2.2350517006  MEMB      11              0.0000000000
      1306        11  SOPE      C33             3.4261206846       14.7075014381       15.6278015285  MEMB      11              0.0000000000
      1307        11  SOPE      H3X             4.4435799517       14.3988843721       15.9500634974  MEMB      11              0.0000000000
      1308        11  SOPE      H3Y             3.4386190513       14.8376703663       14.5245241774  MEMB      11              0.0000000000
      1309        11  SOPE      C34             2.3363423042       13.6838947259       15.8923767495  MEMB      11              0.0000000000
      1310        11  SOPE      H4X             1.3309702060       14.1368632842       15.7568513731  MEMB      11              0.0000000000
      1311        11  SOPE      H4Y             2.2177130832       13.4320595662       16.9679355484  MEMB      11              0.0000000000
      1312        11  SOPE      C35             2.5648069315       12.3762335277       15.1354046494  MEMB      11              0.0000000000
      1313        11  SOPE      H5X             1.8263524687       11.7194601757       15.6430015618  MEMB      11              0.0000000000
      1314        11  SOPE      H5Y             3.5847813597       11.9870989350       15.3416757092  MEMB      11              0.0000000000
      1315        11  SOPE      C36             2.3406834221       12.4639018770       13.5714919192  MEMB      11              0.0000000000
      1316        11  SOPE      H6X             2.5211383816       11.4717824859       13.1051704590  MEMB      11              0.0000000000
      1317        11  SOPE      H6Y             3.0583850307       13.1968296497       13.1448278964  MEMB      11              0.0000000000
      1318        11  SOPE      C37             0.9760005895       12.8865997550       13.1311118068  MEMB      11              0.0000000000
      1319        11  SOPE      H7X             0.6656456220       13.7832881810       13.7089961776  MEMB      11              0.0000000000
      1320        11  SOPE      H7Y             0.2948842827       12.0259851158       13.3035765686  MEMB      11              0.0000000000
      1321        11  SOPE      C38             0.8237456624       13.2700624107       11.6902866930  MEMB      11              0.0000000000
      1322        11  SOPE      H8X             1.5446302486       14.0531478617       11.3718157601  MEMB      11              0.0000000000
      1323        11  SOPE      H8Y            -0.2043988560       13.6779041897       11.5858594759  MEMB      11              0.0000000000
      1324        11  SOPE      C39             0.8943822408       12.1541392722       10.6685545414  MEMB      11              0.0000000000
      1325        11  SOPE      H9X             0.0421476817       11.4562317923       10.8132700757  MEMB      11              0.0000000000
      1326        11  SOPE      H9Y             1.8189506846       11.5496842358       10.7874168935  MEMB      11              0.0000000000
      1327        11  SOPE      C310            0.7517667570       12.6936032113        9.2511923528  MEMB      11              0.0000000000
      1328        11  SOPE      H10X            1.6903885525       13.1972477117        8.9355147465  MEMB      11              0.0000000000
      1329        11  SOPE      H10Y            0.0375405761       13.5398369076        9.3411365282  MEMB      11              0.0000000000
      1330        11  SOPE      C311            0.0157545016       11.7373123844        8.1879727946  MEMB      11              0.0000000000
      1331        11  SOPE      H11X           -0.4993449773       12.3660732546        7.4305735076  MEMB      11              0.0000000000
      1332        11  SOPE      H11Y           -0.7231323755       11.2275560677        8.8425841722  MEMB      11              0.0000000000
      1333        11  SOPE      C312            0.9221125668       10.8069004819        7.3337566422  MEMB      11              0.0000000000
      1334        11  SOPE      H12X            1.2439276546        9.9610552208        7.9781960718  MEMB      11              0.0000000000
      1335        11  SOPE      H12Y            1.8300334733       11.2976382516        6.9224457206  MEMB      11              0.0000000000
      1336        11  SOPE      C313            0.1122376969       10.2040305815        6.1697270197  MEMB      11              0.0000000000
      1337        11  SOPE      H13X           -0.3323792326       11.0248786116        5.5673610419  MEMB      11              0.0000000000
      1338        11  SOPE      H13Y           -0.7797485768        9.6728097911        6.5653104147  MEMB      11              0.0000000000
      1339        11  SOPE      C314            0.9139173662        9.3177234740        5.2365701979  MEMB      11              0.0000000000
      1340        11  SOPE      H14X            0.2610056250        8.7388799198        4.5488438594  MEMB      11              0.0000000000
      1341        11  SOPE      H14Y            1.5076935623        8.5907281639        5.8309012201  MEMB      11              0.0000000000
      1342        11  SOPE      C315            1.9397861525       10.0754752230        4.3196529838  MEMB      11              0.0000000000
      1343        11  SOPE      H15X            2.6670127500        9.2839138060        4.0387729144  MEMB      11              0.0000000000
      1344        11  SOPE      H15Y            2.4403498093       10.8112451254        4.9847824551  MEMB      11              0.0000000000
      1345        11  SOPE      C316            1.3101118849       10.8721932267        3.1705820134  MEMB      11              0.0000000000
      1346        11  SOPE      H16X            0.7813691852       11.7477471713        3.6043514974  MEMB      11              0.0000000000
      1347        11  SOPE      H16Y            0.5512101096       10.3886058364        2.5190188548  MEMB      11              0.0000000000
      1348        11  SOPE      C317            2.3103153229       11.4969462418        2.2476642604  MEMB      11              0.0000000000
      1349        11  SOPE      H17X            3.3353384915       11.2623675145        2.6063018656  MEMB      11              0.0000000000
      1350        11  SOPE      H17Y            2.1418212375       12.5938244759        2.3004734850  MEMB      11              0.0000000000
      1351        11  SOPE      C318            2.3179931689       10.9209760397        0.7972028333  MEMB      11              0.0000000000
      1352        11  SOPE      H18X            3.2893041990       11.1808805914        0.3246295661  MEMB      11              0.0000000000
      1353        11  SOPE      H18Y            1.4974947829       11.4039706362        0.2246464716  MEMB      11              0.0000000000
      1354        11  SOPE      H18Z            2.1339039221        9.8290712573        0.8876250310  MEMB      11              0.0000000000
      1355        12  OSM       N              -9.6489597482       11.2661763903       22.4643974549  MEMB      12              0.0000000000
      1356        12  OSM       C15            -8.4970292395       11.9185511848       23.2173104197  MEMB      12              0.0000000000
      1357        12  OSM       H15A           -8.9735667219       12.6030481473       23.9034416930  MEMB      12              0.0000000000
      1358        12  OSM       H15B           -7.7959565423       12.3915035477       22.5455863904  MEMB      12              0.0000000000
      1359        12  OSM       H15C           -8.0083424790       11.2629708635       23.9228597929  MEMB      12              0.0000000000
      1360        12  OSM       C14            -9.1416970618        9.9487462513       21.9462859830  MEMB      12              0.0000000000
      1361        12  OSM       H14A           -8.2091196335       10.0443950168       21.4100486257  MEMB      12              0.0000000000
      1362        12  OSM       H14B           -9.8525640704        9.4897064453       21.2752042462  MEMB      12              0.0000000000
      1363        12  OSM       H14C           -9.1423769053        9.3143785974       22.8203437820  MEMB      12              0.0000000000
      1364        12  OSM       C13           -10.8108752315       11.0896281060       23.3962244224  MEMB      12              0.0000000000
      1365        12  OSM       H13A          -11.0242263171       12.0830452343       23.7622896327  MEMB      12              0.0000000000
      1366        12  OSM       H13B          -10.6091368836       10.4806681108       24.2650567772  MEMB      12              0.0000000000
      1367        12  OSM       H13C          -11.6987844148       10.7456231047       22.8866384518  MEMB      12              0.0000000000
      1368        12  OSM       C12           -10.1307502127       12.1830183371       21.3724277887  MEMB      12              0.0000000000
      1369        12  OSM       H12A          -10.1465257807       13.2024542253       21.7286603512  MEMB      12              0.0000000000
      1370        12  OSM       H12B          -11.1456611443       11.9086737950       21.1252618214  MEMB      12              0.0000000000
      1371        12  OSM       C11            -9.3529135057       12.1633551300       20.0767358145  MEMB      12              0.0000000000
      1372        12  OSM       H11A           -9.9736412721       12.7770969601       19.3894665342  MEMB      12              0.0000000000
      1373        12  OSM       H11B           -9.3631485454       11.1176090874       19.7017271556  MEMB      12              0.0000000000
      1374        12  OSM       P              -7.3972608013       13.9622030235       19.7269737746  MEMB      12              0.0000000000
      1375        12  OSM       O13            -7.9673821140       15.0119330319       20.6407343393  MEMB      12              0.0000000000
      1376        12  OSM       O14            -5.9105232581       13.9771311837       19.6449520606  MEMB      12              0.0000000000
      1377        12  OSM       O11            -7.9987763531       14.1815972235       18.2495407082  MEMB      12              0.0000000000
      1378        12  OSM       O12            -7.9721664095       12.5644855343       20.2644172296  MEMB      12              0.0000000000
      1379        12  OSM       C1S            -7.9025919763       13.1650336403       17.2952113878  MEMB      12              0.0000000000
      1380        12  OSM       H1S            -8.4728417668       12.2705897743       17.6255238741  MEMB      12              0.0000000000
      1381        12  OSM       H1T            -6.8238131925       12.9006903669       17.2691376757  MEMB      12              0.0000000000
      1382        12  OSM       NF             -9.1522463614       12.6251209572       15.4685170179  MEMB      12              0.0000000000
      1383        12  OSM       HNF            -8.7295754816       12.2306437584       14.6562693344  MEMB      12              0.0000000000
      1384        12  OSM       C2S            -8.4742976077       13.7052095615       16.0583774741  MEMB      12              0.0000000000
      1385        12  OSM       H2S            -9.3207312161       14.3760222210       16.3189184554  MEMB      12              0.0000000000
      1386        12  OSM       C3S            -7.3619411883       14.1909060372       15.0958110073  MEMB      12              0.0000000000
      1387        12  OSM       H3S            -6.5845018500       13.4141730931       14.9327315232  MEMB      12              0.0000000000
      1388        12  OSM       O3             -6.7578024365       15.2968633250       15.6991374147  MEMB      12              0.0000000000
      1389        12  OSM       HO3            -7.1917584825       15.3485927504       16.5538925700  MEMB      12              0.0000000000
      1390        12  OSM       C4S            -7.8305286736       14.6387171162       13.7991821416  MEMB      12              0.0000000000
      1391        12  OSM       H4S            -8.5802073509       15.4424897696       13.7552354224  MEMB      12              0.0000000000
      1392        12  OSM       C5S            -7.2525108085       14.0944578185       12.6764257301  MEMB      12              0.0000000000
      1393        12  OSM       H5S            -6.5442040113       13.2954031258       12.9406482896  MEMB      12              0.0000000000
      1394        12  OSM       C6S            -7.5425123825       14.3272835775       11.2580479576  MEMB      12              0.0000000000
      1395        12  OSM       H6S            -7.9269293951       13.3931748931       10.7954621752  MEMB      12              0.0000000000
      1396        12  OSM       H6T            -6.5968254113       14.4793027984       10.6951203047  MEMB      12              0.0000000000
      1397        12  OSM       C7S            -8.5407229362       15.5059941786       10.9900300244  MEMB      12              0.0000000000
      1398        12  OSM       H7S            -8.0454632637       16.4827418065       11.1771200568  MEMB      12              0.0000000000
      1399        12  OSM       H7T            -9.4189452198       15.2756458884       11.6303321281  MEMB      12              0.0000000000
      1400        12  OSM       C8S            -9.0459253061       15.7021215204        9.5636131822  MEMB      12              0.0000000000
      1401        12  OSM       H8S           -10.0418006393       16.1946175054        9.5628186192  MEMB      12              0.0000000000
      1402        12  OSM       H8T            -9.1738294586       14.6872590918        9.1300054466  MEMB      12              0.0000000000
      1403        12  OSM       C9S            -8.1854274481       16.6356852556        8.7154258274  MEMB      12              0.0000000000
      1404        12  OSM       H9S            -7.1148206428       16.3676652774        8.8430463828  MEMB      12              0.0000000000
      1405        12  OSM       H9T            -8.2340210105       17.7001259271        9.0299501013  MEMB      12              0.0000000000
      1406        12  OSM       C10S           -8.6521406776       16.6070210041        7.2964941251  MEMB      12              0.0000000000
      1407        12  OSM       H10S           -9.7280756045       16.8815722923        7.2603511372  MEMB      12              0.0000000000
      1408        12  OSM       H10T           -8.6124156246       15.5480766616        6.9627584305  MEMB      12              0.0000000000
      1409        12  OSM       C11S           -7.7994338010       17.3703645622        6.2745532741  MEMB      12              0.0000000000
      1410        12  OSM       H11S           -6.7898876493       17.5859949529        6.6852134452  MEMB      12              0.0000000000
      1411        12  OSM       H11T           -8.3903696034       18.3110013005        6.2923961950  MEMB      12              0.0000000000
      1412        12  OSM       C12S           -7.5703092434       16.7451742625        4.9033052792  MEMB      12              0.0000000000
      1413        12  OSM       H12S           -7.3301421844       17.3885248266        4.0299551735  MEMB      12              0.0000000000
      1414        12  OSM       H12T           -8.4940805763       16.1527107020        4.7302310379  MEMB      12              0.0000000000
      1415        12  OSM       C13S           -6.4600824578       15.6297693347        5.0396196244  MEMB      12              0.0000000000
      1416        12  OSM       H13S           -6.7791799645       14.7334816299        5.6133490920  MEMB      12              0.0000000000
      1417        12  OSM       H13T           -5.5443940647       15.9935511333        5.5529407547  MEMB      12              0.0000000000
      1418        12  OSM       C14S           -6.0174242560       15.0033285241        3.6691470832  MEMB      12              0.0000000000
      1419        12  OSM       H14S           -5.5462640024       14.0581973908        4.0141919349  MEMB      12              0.0000000000
      1420        12  OSM       H14T           -5.2418930365       15.7295587725        3.3443984929  MEMB      12              0.0000000000
      1421        12  OSM       C15S           -7.1547724554       14.5868612535        2.6985037714  MEMB      12              0.0000000000
      1422        12  OSM       H15S           -7.5760125198       15.5656610667        2.3841332223  MEMB      12              0.0000000000
      1423        12  OSM       H15T           -7.8712093976       13.9408617248        3.2496143427  MEMB      12              0.0000000000
      1424        12  OSM       C16S           -6.6725183522       13.8229993519        1.4827776839  MEMB      12              0.0000000000
      1425        12  OSM       H16S           -6.1417186242       12.9062154729        1.8175605867  MEMB      12              0.0000000000
      1426        12  OSM       H16T           -5.8777293779       14.3718943346        0.9338273129  MEMB      12              0.0000000000
      1427        12  OSM       C17S           -7.7620022517       13.5079748740        0.3480687688  MEMB      12              0.0000000000
      1428        12  OSM       H17S           -8.4434786939       14.3505513645        0.1031692241  MEMB      12              0.0000000000
      1429        12  OSM       H17T           -8.4432494858       12.7945593483        0.8592066496  MEMB      12              0.0000000000
      1430        12  OSM       C18S           -7.1148200822       12.7503613285       -0.8887859641  MEMB      12              0.0000000000
      1431        12  OSM       H18S           -7.8661198398       12.1353756053       -1.4288431608  MEMB      12              0.0000000000
      1432        12  OSM       H18T           -6.2162460035       12.1445346053       -0.6441241960  MEMB      12              0.0000000000
      1433        12  OSM       H18U           -6.7838528248       13.5150812931       -1.6236232423  MEMB      12              0.0000000000
      1434        12  OSM       C1F           -10.2982346859       12.0151804697       15.9171131101  MEMB      12              0.0000000000
      1435        12  OSM       OF            -10.8759170001       12.3692572857       16.9356762930  MEMB      12              0.0000000000
      1436        12  OSM       C2F           -10.7849799944       10.8140047686       15.1250520125  MEMB      12              0.0000000000
      1437        12  OSM       H2F           -11.5992149963       10.3733832607       15.7392140160  MEMB      12              0.0000000000
      1438        12  OSM       H2G            -9.9463863795       10.0995679054       14.9813101484  MEMB      12              0.0000000000
      1439        12  OSM       C3F           -11.1583896347       11.1272924912       13.7243392737  MEMB      12              0.0000000000
      1440        12  OSM       H3F           -10.5542019887       11.9331056345       13.2553578022  MEMB      12              0.0000000000
      1441        12  OSM       H3G           -12.1952362232       11.5179848640       13.6429181591  MEMB      12              0.0000000000
      1442        12  OSM       C4F           -11.0427768979        9.9411980598       12.6998772960  MEMB      12              0.0000000000
      1443        12  OSM       H4F           -11.8677448589        9.2273523918       12.9100517443  MEMB      12              0.0000000000
      1444        12  OSM       H4G           -10.0447781345        9.4738570134       12.8409873780  MEMB      12              0.0000000000
      1445        12  OSM       C5F           -11.1306276896       10.3577568401       11.2512763720  MEMB      12              0.0000000000
      1446        12  OSM       H5F           -12.0807475825       10.8972841735       11.0500209112  MEMB      12              0.0000000000
      1447        12  OSM       H5G           -11.2919972960        9.5046446048       10.5581094830  MEMB      12              0.0000000000
      1448        12  OSM       C6F            -9.9099425277       11.0226942235       10.5812005126  MEMB      12              0.0000000000
      1449        12  OSM       H6F            -9.0352427472       10.3381047962       10.6048329847  MEMB      12              0.0000000000
      1450        12  OSM       H6G            -9.4827699393       11.8692675903       11.1601280999  MEMB      12              0.0000000000
      1451        12  OSM       C7F           -10.1319242169       11.4525723147        9.1576318006  MEMB      12              0.0000000000
      1452        12  OSM       H7F           -10.6317259351       12.4437358883        9.1116520748  MEMB      12              0.0000000000
      1453        12  OSM       H7G           -10.8223946406       10.7686938904        8.6192247599  MEMB      12              0.0000000000
      1454        12  OSM       C8F            -8.7716911062       11.5822146259        8.3981129302  MEMB      12              0.0000000000
      1455        12  OSM       H8F            -7.9512363042       12.0340264673        8.9956411075  MEMB      12              0.0000000000
      1456        12  OSM       H8G            -8.9185109495       12.2953859157        7.5589750139  MEMB      12              0.0000000000
      1457        12  OSM       C9F            -8.3802454429       10.2111722003        7.7746603926  MEMB      12              0.0000000000
      1458        12  OSM       H9F            -8.2305061026        9.4261969122        8.5305647396  MEMB      12              0.0000000000
      1459        12  OSM       C10F           -8.1249202606        9.8310370550        6.4831622037  MEMB      12              0.0000000000
      1460        12  OSM       H10F           -7.7604018524        8.8164226158        6.2647947043  MEMB      12              0.0000000000
      1461        12  OSM       C11F           -8.2075077505       10.8205479496        5.3517893270  MEMB      12              0.0000000000
      1462        12  OSM       H11F           -7.6372164804       10.3853895322        4.5034227258  MEMB      12              0.0000000000
      1463        12  OSM       H11G           -7.7260100988       11.8051154742        5.5337453860  MEMB      12              0.0000000000
      1464        12  OSM       C12F           -9.6176162540       11.2050621111        4.9424458516  MEMB      12              0.0000000000
      1465        12  OSM       H12F           -9.5268002903       11.8207337317        4.0221078883  MEMB      12              0.0000000000
      1466        12  OSM       H12G           -9.9412630931       11.8958165652        5.7501790526  MEMB      12              0.0000000000
      1467        12  OSM       C13F          -10.6289119781       10.1074066394        4.6291007537  MEMB      12              0.0000000000
      1468        12  OSM       H13F          -11.5565987339       10.5794500193        4.2406511124  MEMB      12              0.0000000000
      1469        12  OSM       H13G          -10.8340465519        9.6524642205        5.6217083300  MEMB      12              0.0000000000
      1470        12  OSM       C14F          -10.3266564474        9.0518296476        3.5347658172  MEMB      12              0.0000000000
      1471        12  OSM       H14F          -10.8495898061        8.0738071456        3.6005952426  MEMB      12              0.0000000000
      1472        12  OSM       H14G           -9.2607652063        8.7508789748        3.6220909966  MEMB      12              0.0000000000
      1473        12  OSM       C15F          -10.4728274119        9.6084522735        2.1178942094  MEMB      12              0.0000000000
      1474        12  OSM       H15F           -9.7303876262       10.4212215557        1.9678597612  MEMB      12              0.0000000000
      1475        12  OSM       H15G          -11.4122237339       10.1848374842        1.9777671128  MEMB      12              0.0000000000
      1476        12  OSM       C16F          -10.2923000951        8.5812553914        1.0606140026  MEMB      12              0.0000000000
      1477        12  OSM       H16F          -11.2357111727        8.0477467291        0.8163498215  MEMB      12              0.0000000000
      1478        12  OSM       H16G           -9.5910493930        7.8107033870        1.4463854112  MEMB      12              0.0000000000
      1479        12  OSM       C17F           -9.8395364338        9.1435612836       -0.2751862813  MEMB      12              0.0000000000
      1480        12  OSM       H17F           -9.8817585009        8.3713881892       -1.0728629524  MEMB      12              0.0000000000
      1481        12  OSM       H17G           -8.7657611051        9.3980555254       -0.1465003334  MEMB      12              0.0000000000
      1482        12  OSM       C18F          -10.4936483456       10.5061577123       -0.7666684457  MEMB      12              0.0000000000
      1483        12  OSM       H18F          -10.0051638489       11.4168168105       -0.3587420035  MEMB      12              0.0000000000
      1484        12  OSM       H18G          -11.5957643428       10.5569658893       -0.6359784475  MEMB      12              0.0000000000
      1485        12  OSM       H18H          -10.1674336908       10.4638568941       -1.8278554738  MEMB      12              0.0000000000
      1486        13  OSM       N             -14.2978719259        8.1894292527       22.5021811036  MEMB      13              0.0000000000
      1487        13  OSM       C15           -15.0556237388        8.3314991396       21.2120895260  MEMB      13              0.0000000000
      1488        13  OSM       H15A          -15.7747370052        9.1142449267       21.4033626924  MEMB      13              0.0000000000
      1489        13  OSM       H15B          -15.5643928728        7.4572551376       20.8336038762  MEMB      13              0.0000000000
      1490        13  OSM       H15C          -14.3285673565        8.6650263301       20.4864528444  MEMB      13              0.0000000000
      1491        13  OSM       C14           -13.5837895556        9.4530077645       22.7787511935  MEMB      13              0.0000000000
      1492        13  OSM       H14A          -12.7227430079        9.5186008836       22.1301400371  MEMB      13              0.0000000000
      1493        13  OSM       H14B          -13.2810915022        9.3609206597       23.8113663246  MEMB      13              0.0000000000
      1494        13  OSM       H14C          -14.2351109271       10.3145065143       22.7782428852  MEMB      13              0.0000000000
      1495        13  OSM       C13           -15.2960467457        7.7485975496       23.5935267873  MEMB      13              0.0000000000
      1496        13  OSM       H13A          -15.6663366987        6.7791289972       23.2945013906  MEMB      13              0.0000000000
      1497        13  OSM       H13B          -16.1000215434        8.4682355783       23.6398450321  MEMB      13              0.0000000000
      1498        13  OSM       H13C          -14.8130319409        7.7555009153       24.5594715341  MEMB      13              0.0000000000
      1499        13  OSM       C12           -13.2878495071        7.0869360384       22.4205009729  MEMB      13              0.0000000000
      1500        13  OSM       H12A          -13.8512211649        6.1781068324       22.2687053142  MEMB      13              0.0000000000
      1501        13  OSM       H12B          -12.7767868181        7.0573082645       23.3714672781  MEMB      13              0.0000000000
      1502        13  OSM       C11           -12.1466649871        7.0780584297       21.3267933361  MEMB      13              0.0000000000
      1503        13  OSM       H11A          -11.5207429478        6.1770024741       21.5018388550  MEMB      13              0.0000000000
      1504        13  OSM       H11B          -11.5165558928        7.9755230150       21.5052334750  MEMB      13              0.0000000000
      1505        13  OSM       P             -13.1761536385        5.7238646518       19.4297453680  MEMB      13              0.0000000000
      1506        13  OSM       O13           -11.9582580435        4.9370477948       19.2570888181  MEMB      13              0.0000000000
      1507        13  OSM       O14           -14.1610321796        5.1333912571       20.3506485319  MEMB      13              0.0000000000
      1508        13  OSM       O11           -13.8605811179        6.1762111403       18.1079864622  MEMB      13              0.0000000000
      1509        13  OSM       O12           -12.6537953130        7.1344782795       20.0206879042  MEMB      13              0.0000000000
      1510        13  OSM       C1S           -13.1405325013        6.5785402206       16.9618163078  MEMB      13              0.0000000000
      1511        13  OSM       H1S           -12.4214496465        7.3630155074       17.2809388697  MEMB      13              0.0000000000
      1512        13  OSM       H1T           -13.8124048635        7.1538953117       16.2895996152  MEMB      13              0.0000000000
      1513        13  OSM       NF            -11.3245658972        5.7904117760       15.3819961578  MEMB      13              0.0000000000
      1514        13  OSM       HNF           -11.4218595962        5.7727486527       14.3899116981  MEMB      13              0.0000000000
      1515        13  OSM       C2S           -12.5423430376        5.4333932092       16.1209741757  MEMB      13              0.0000000000
      1516        13  OSM       H2S           -12.4055630065        4.5997924736       16.8425850633  MEMB      13              0.0000000000
      1517        13  OSM       C3S           -13.6289439023        4.9638379318       15.1549607291  MEMB      13              0.0000000000
      1518        13  OSM       H3S           -13.8987644279        5.7614303241       14.4301404523  MEMB      13              0.0000000000
      1519        13  OSM       O3            -14.7867886362        4.5488523969       15.8292679513  MEMB      13              0.0000000000
      1520        13  OSM       HO3           -14.5315753902        4.6045519208       16.7530447327  MEMB      13              0.0000000000
      1521        13  OSM       C4S           -13.2258307965        3.7737172717       14.3783969522  MEMB      13              0.0000000000
      1522        13  OSM       H4S           -13.1351657422        2.8680398476       14.9960765337  MEMB      13              0.0000000000
      1523        13  OSM       C5S           -12.9762181820        3.8183907451       13.0339595495  MEMB      13              0.0000000000
      1524        13  OSM       H5S           -13.1022105132        4.7476164900       12.4589240318  MEMB      13              0.0000000000
      1525        13  OSM       C6S           -12.4874668390        2.6254774873       12.1863931526  MEMB      13              0.0000000000
      1526        13  OSM       H6S           -13.0298544283        2.4883883896       11.2265269920  MEMB      13              0.0000000000
      1527        13  OSM       H6T           -12.5818886769        1.6829406770       12.7669357961  MEMB      13              0.0000000000
      1528        13  OSM       C7S           -10.9779540755        2.9758253885       11.8447499689  MEMB      13              0.0000000000
      1529        13  OSM       H7S           -10.2745879271        2.7635052344       12.6781268659  MEMB      13              0.0000000000
      1530        13  OSM       H7T           -10.9070370022        4.0845109710       11.8343690783  MEMB      13              0.0000000000
      1531        13  OSM       C8S           -10.3606314790        2.1557457510       10.7227634247  MEMB      13              0.0000000000
      1532        13  OSM       H8S           -10.4603443467        1.0768294742       10.9683610186  MEMB      13              0.0000000000
      1533        13  OSM       H8T            -9.2773702569        2.3875050302       10.8073422287  MEMB      13              0.0000000000
      1534        13  OSM       C9S           -10.7487744867        2.3939303654        9.3131892633  MEMB      13              0.0000000000
      1535        13  OSM       H9S           -11.6802408561        1.8461406838        9.0550853487  MEMB      13              0.0000000000
      1536        13  OSM       H9T            -9.8591307856        2.1543873483        8.6923239826  MEMB      13              0.0000000000
      1537        13  OSM       C10S          -11.0636862969        3.8458782281        8.9170210499  MEMB      13              0.0000000000
      1538        13  OSM       H10S          -11.7695116567        4.2023543385        9.6974416746  MEMB      13              0.0000000000
      1539        13  OSM       H10T          -11.6164648799        3.7844673807        7.9552589800  MEMB      13              0.0000000000
      1540        13  OSM       C11S           -9.7317123260        4.6688388010        8.7704438161  MEMB      13              0.0000000000
      1541        13  OSM       H11S           -9.0112783368        4.2050188649        8.0632182261  MEMB      13              0.0000000000
      1542        13  OSM       H11T           -9.2391968851        4.7628081864        9.7618660757  MEMB      13              0.0000000000
      1543        13  OSM       C12S           -9.9380627853        6.1514245727        8.3574540623  MEMB      13              0.0000000000
      1544        13  OSM       H12S           -9.0020345317        6.7383170350        8.4746263544  MEMB      13              0.0000000000
      1545        13  OSM       H12T          -10.5910617658        6.5449043538        9.1655917526  MEMB      13              0.0000000000
      1546        13  OSM       C13S          -10.4671742325        6.3082734588        6.9514477580  MEMB      13              0.0000000000
      1547        13  OSM       H13S          -11.3260348865        5.6455643005        6.7116645040  MEMB      13              0.0000000000
      1548        13  OSM       H13T           -9.6711717401        5.8473647168        6.3283393058  MEMB      13              0.0000000000
      1549        13  OSM       C14S          -10.6815257122        7.7116020186        6.5556654594  MEMB      13              0.0000000000
      1550        13  OSM       H14S           -9.7480447989        8.2435942817        6.2729664509  MEMB      13              0.0000000000
      1551        13  OSM       H14T          -11.1188701382        8.2076850869        7.4483869238  MEMB      13              0.0000000000
      1552        13  OSM       C15S          -11.5061369500        7.7499562856        5.2489214764  MEMB      13              0.0000000000
      1553        13  OSM       H15S          -11.7340805088        8.8162397986        5.0358434061  MEMB      13              0.0000000000
      1554        13  OSM       H15T          -12.5218296506        7.4045882013        5.5377292859  MEMB      13              0.0000000000
      1555        13  OSM       C16S          -10.8925094464        6.9574092754        4.0883157566  MEMB      13              0.0000000000
      1556        13  OSM       H16S          -11.0610581850        5.8600868732        4.1306913271  MEMB      13              0.0000000000
      1557        13  OSM       H16T           -9.7916101163        7.0944656152        4.1479580290  MEMB      13              0.0000000000
      1558        13  OSM       C17S          -11.2041672524        7.5517221723        2.7774496364  MEMB      13              0.0000000000
      1559        13  OSM       H17S          -11.0789163308        8.6555368009        2.7924980173  MEMB      13              0.0000000000
      1560        13  OSM       H17T          -12.2793592968        7.3874594092        2.5509522286  MEMB      13              0.0000000000
      1561        13  OSM       C18S          -10.3389946901        6.8956332741        1.7463292197  MEMB      13              0.0000000000
      1562        13  OSM       H18S          -10.5287758189        5.8014193412        1.7779534277  MEMB      13              0.0000000000
      1563        13  OSM       H18T           -9.3122590251        7.0641604286        2.1358575114  MEMB      13              0.0000000000
      1564        13  OSM       H18U          -10.2979148933        7.2646637526        0.6992125872  MEMB      13              0.0000000000
      1565        13  OSM       C1F           -10.1301819191        5.9616421674       16.0739241032  MEMB      13              0.0000000000
      1566        13  OSM       OF            -10.0774228260        5.8356908006       17.2790131960  MEMB      13              0.0000000000
      1567        13  OSM       C2F            -8.8900200768        6.0654006434       15.2845741702  MEMB      13              0.0000000000
      1568        13  OSM       H2F            -8.1915981801        5.2102145600       15.4077981864  MEMB      13              0.0000000000
      1569        13  OSM       H2G            -8.2293142822        6.9162411179       15.5563446410  MEMB      13              0.0000000000
      1570        13  OSM       C3F            -9.1181175348        6.1207547832       13.6819354811  MEMB      13              0.0000000000
      1571        13  OSM       H3F            -9.7281172149        5.2978779789       13.2517085542  MEMB      13              0.0000000000
      1572        13  OSM       H3G            -8.0894785968        6.0101235409       13.2769860738  MEMB      13              0.0000000000
      1573        13  OSM       C4F            -9.6741180090        7.4801142032       13.1196340025  MEMB      13              0.0000000000
      1574        13  OSM       H4F            -8.8682728135        7.9429614300       12.5107768178  MEMB      13              0.0000000000
      1575        13  OSM       H4G            -9.8110457846        8.1454394211       13.9987896118  MEMB      13              0.0000000000
      1576        13  OSM       C5F           -11.0816938585        7.4056923153       12.4370466135  MEMB      13              0.0000000000
      1577        13  OSM       H5F           -11.6943662937        6.8093000694       13.1464612800  MEMB      13              0.0000000000
      1578        13  OSM       H5G           -11.0246308133        6.7189564611       11.5655771716  MEMB      13              0.0000000000
      1579        13  OSM       C6F           -11.9494313636        8.7283886423       12.2858388203  MEMB      13              0.0000000000
      1580        13  OSM       H6F           -11.5460445031        9.2409112369       11.3864388324  MEMB      13              0.0000000000
      1581        13  OSM       H6G           -11.8944159671        9.3381742009       13.2129071900  MEMB      13              0.0000000000
      1582        13  OSM       C7F           -13.4862235810        8.5881894390       11.9050368867  MEMB      13              0.0000000000
      1583        13  OSM       H7F           -14.0680853794        8.2690002077       12.7960343906  MEMB      13              0.0000000000
      1584        13  OSM       H7G           -13.7045383409        7.7760298696       11.1790505156  MEMB      13              0.0000000000
      1585        13  OSM       C8F           -14.1089502118        9.9302710114       11.3752757078  MEMB      13              0.0000000000
      1586        13  OSM       H8F           -14.0127726715       10.7468073901       12.1224965040  MEMB      13              0.0000000000
      1587        13  OSM       H8G           -15.1805698797        9.7790915124       11.1240842117  MEMB      13              0.0000000000
      1588        13  OSM       C9F           -13.5401254903       10.4121278347       10.0586254542  MEMB      13              0.0000000000
      1589        13  OSM       H9F           -12.6837142049       11.0958652940       10.1538272355  MEMB      13              0.0000000000
      1590        13  OSM       C10F          -13.9473221950       10.0182844813        8.8562224389  MEMB      13              0.0000000000
      1591        13  OSM       H10F          -13.5111319117       10.5221910155        7.9811134552  MEMB      13              0.0000000000
      1592        13  OSM       C11F          -15.0383800130        9.0065010498        8.5092204557  MEMB      13              0.0000000000
      1593        13  OSM       H11F          -15.6908407618        9.6699705152        7.9022410883  MEMB      13              0.0000000000
      1594        13  OSM       H11G          -15.6055899446        8.6872360943        9.4095891603  MEMB      13              0.0000000000
      1595        13  OSM       C12F          -14.4943713897        7.6838835458        7.9075908717  MEMB      13              0.0000000000
      1596        13  OSM       H12F          -13.9282858864        7.1623194812        8.7087395552  MEMB      13              0.0000000000
      1597        13  OSM       H12G          -13.8147754908        7.7904151008        7.0351680077  MEMB      13              0.0000000000
      1598        13  OSM       C13F          -15.6445457287        6.8020616889        7.4317099101  MEMB      13              0.0000000000
      1599        13  OSM       H13F          -16.2334232531        7.3677526362        6.6783585909  MEMB      13              0.0000000000
      1600        13  OSM       H13G          -16.4068068123        6.4913221915        8.1778465438  MEMB      13              0.0000000000
      1601        13  OSM       C14F          -15.1407491881        5.5337320361        6.7665500929  MEMB      13              0.0000000000
      1602        13  OSM       H14F          -15.8941009471        4.7216149790        6.6814166285  MEMB      13              0.0000000000
      1603        13  OSM       H14G          -14.2131476299        5.3017443456        7.3322875335  MEMB      13              0.0000000000
      1604        13  OSM       C15F          -14.8291345765        5.6663146379        5.2808561659  MEMB      13              0.0000000000
      1605        13  OSM       H15F          -14.0994174742        4.8727461252        5.0123742373  MEMB      13              0.0000000000
      1606        13  OSM       H15G          -14.4548975404        6.6765801982        5.0095054750  MEMB      13              0.0000000000
      1607        13  OSM       C16F          -16.1224144953        5.4110271781        4.3295393321  MEMB      13              0.0000000000
      1608        13  OSM       H16F          -16.8867489101        6.1494855774        4.6532566554  MEMB      13              0.0000000000
      1609        13  OSM       H16G          -16.3252238836        4.3721164345        4.6669613346  MEMB      13              0.0000000000
      1610        13  OSM       C17F          -15.9837163339        5.6051883598        2.8622183868  MEMB      13              0.0000000000
      1611        13  OSM       H17F          -15.2138106905        4.9629130017        2.3836285091  MEMB      13              0.0000000000
      1612        13  OSM       H17G          -15.6293385655        6.6393130265        2.6639170608  MEMB      13              0.0000000000
      1613        13  OSM       C18F          -17.2878542476        5.4148112084        2.0203044268  MEMB      13              0.0000000000
      1614        13  OSM       H18F          -18.1080615589        5.8892967974        2.6003435239  MEMB      13              0.0000000000
      1615        13  OSM       H18G          -17.5087061388        4.3368414963        1.8669200322  MEMB      13              0.0000000000
      1616        13  OSM       H18H          -17.3129841813        5.9506225193        1.0473734031  MEMB      13              0.0000000000
      1617        14  SOPE      N              14.1989729805        8.7293857808       23.3243654625  MEMB      14              0.0000000000
      1618        14  SOPE      HN1            14.0316929531        7.8909989164       22.7321453134  MEMB      14              0.0000000000
      1619        14  SOPE      HN2            15.1053935268        8.7779547657       23.8319512109  MEMB      14              0.0000000000
      1620        14  SOPE      HN3            13.4925423192        8.7289052130       24.0876185773  MEMB      14              0.0000000000
      1621        14  SOPE      C12            13.8292109464        9.9618196509       22.5000221462  MEMB      14              0.0000000000
      1622        14  SOPE      H12A           14.5780537930        9.9361086977       21.6797208714  MEMB      14              0.0000000000
      1623        14  SOPE      H12B           14.0547533841       10.8598313588       23.1140469807  MEMB      14              0.0000000000
      1624        14  SOPE      C11            12.3673625505        9.9281799233       21.9831815824  MEMB      14              0.0000000000
      1625        14  SOPE      H11A           12.1858719530       10.6954496145       21.2004432471  MEMB      14              0.0000000000
      1626        14  SOPE      H11B           11.8547117834       10.1428781364       22.9451663600  MEMB      14              0.0000000000
      1627        14  SOPE      P              12.1279774481        8.1241106371       20.0601914835  MEMB      14              0.0000000000
      1628        14  SOPE      O13            11.0032034092        7.2484247155       19.6558327219  MEMB      14              0.0000000000
      1629        14  SOPE      O14            13.4693344179        7.4754350874       19.8178349619  MEMB      14              0.0000000000
      1630        14  SOPE      O12            11.9006053237        8.6578199666       21.5642844064  MEMB      14              0.0000000000
      1631        14  SOPE      O11            11.9805304882        9.5069209506       19.0942872066  MEMB      14              0.0000000000
      1632        14  SOPE      C1             11.3192207889        9.5384878512       17.8834131276  MEMB      14              0.0000000000
      1633        14  SOPE      HA             10.2633279210        9.8514589611       18.0299064703  MEMB      14              0.0000000000
      1634        14  SOPE      HB             11.2343673218        8.5125816141       17.4655168120  MEMB      14              0.0000000000
      1635        14  SOPE      C2             12.1071333284       10.5067313924       16.8691342877  MEMB      14              0.0000000000
      1636        14  SOPE      HS             11.6128122316       10.4352804501       15.8767319861  MEMB      14              0.0000000000
      1637        14  SOPE      O21            13.5337590076       10.3259823193       16.8009596708  MEMB      14              0.0000000000
      1638        14  SOPE      C21            13.9476144312        9.0808148766       16.6245786606  MEMB      14              0.0000000000
      1639        14  SOPE      O22            13.3534253580        8.1139248270       16.3333491736  MEMB      14              0.0000000000
      1640        14  SOPE      C22            15.4217464921        9.1368326079       16.7844000365  MEMB      14              0.0000000000
      1641        14  SOPE      H2R            15.5850058048        9.5834709397       17.7884823620  MEMB      14              0.0000000000
      1642        14  SOPE      H2S            15.7845872166        9.8374443974       16.0022168591  MEMB      14              0.0000000000
      1643        14  SOPE      C3             11.8685338248       11.9874872830       17.1573658413  MEMB      14              0.0000000000
      1644        14  SOPE      HX             12.0780350090       12.2021991254       18.2270988491  MEMB      14              0.0000000000
      1645        14  SOPE      HY             10.7794984754       12.1982136989       17.0947788672  MEMB      14              0.0000000000
      1646        14  SOPE      O31            12.6161612155       12.7867027070       16.1959968307  MEMB      14              0.0000000000
      1647        14  SOPE      C31            12.0772530936       13.0481705532       15.0968354928  MEMB      14              0.0000000000
      1648        14  SOPE      O32            10.9551896936       12.7583883245       14.6573191051  MEMB      14              0.0000000000
      1649        14  SOPE      C32            13.1268061326       13.7429352622       14.3389885603  MEMB      14              0.0000000000
      1650        14  SOPE      H2X            13.4898947879       14.6604827242       14.8494732515  MEMB      14              0.0000000000
      1651        14  SOPE      H2Y            12.7199578185       13.9543997003       13.3270212419  MEMB      14              0.0000000000
      1652        14  SOPE      C23            16.1388756204        7.7559818309       16.7227435382  MEMB      14              0.0000000000
      1653        14  SOPE      H3R            15.4831884293        6.9919386026       17.1924595095  MEMB      14              0.0000000000
      1654        14  SOPE      H3S            17.1277471244        7.8740197119       17.2152077934  MEMB      14              0.0000000000
      1655        14  SOPE      C24            16.3496438224        7.3380183768       15.2521362598  MEMB      14              0.0000000000
      1656        14  SOPE      H4R            15.5288726283        7.5355688166       14.5298970120  MEMB      14              0.0000000000
      1657        14  SOPE      H4S            17.2773359518        7.8055349279       14.8582621937  MEMB      14              0.0000000000
      1658        14  SOPE      C25            16.3967490158        5.8087046329       15.1825720458  MEMB      14              0.0000000000
      1659        14  SOPE      H5R            17.3902182813        5.4640622834       15.5411264906  MEMB      14              0.0000000000
      1660        14  SOPE      H5S            15.5870445139        5.3475524617       15.7875833797  MEMB      14              0.0000000000
      1661        14  SOPE      C26            15.9468349023        5.2854995946       13.7755477934  MEMB      14              0.0000000000
      1662        14  SOPE      H6R            15.7185355253        4.1999715177       13.7136663830  MEMB      14              0.0000000000
      1663        14  SOPE      H6S            15.0025464962        5.8661815643       13.7017326303  MEMB      14              0.0000000000
      1664        14  SOPE      C27            16.6703908447        5.7001818418       12.4652942422  MEMB      14              0.0000000000
      1665        14  SOPE      H7R            16.4666829046        6.7629177244       12.2134679616  MEMB      14              0.0000000000
      1666        14  SOPE      H7S            17.7347287541        5.3840615831       12.5049633779  MEMB      14              0.0000000000
      1667        14  SOPE      C28            16.0903896955        4.9470131430       11.2076528847  MEMB      14              0.0000000000
      1668        14  SOPE      H8R            16.6148391201        5.2151864506       10.2656571754  MEMB      14              0.0000000000
      1669        14  SOPE      H8S            16.2901055963        3.8544386054       11.1809022709  MEMB      14              0.0000000000
      1670        14  SOPE      C29            14.5886756614        5.1652101290       11.1427232347  MEMB      14              0.0000000000
      1671        14  SOPE      H91            13.9655682235        4.8193530855       11.9806489756  MEMB      14              0.0000000000
      1672        14  SOPE      C210           13.9499008617        5.9137521629       10.3001742664  MEMB      14              0.0000000000
      1673        14  SOPE      H101           12.8855418378        6.1120365184       10.4946572637  MEMB      14              0.0000000000
      1674        14  SOPE      C211           14.5097143673        6.7402279312        9.1372715998  MEMB      14              0.0000000000
      1675        14  SOPE      H11R           15.4574739603        6.2298563408        8.8623290081  MEMB      14              0.0000000000
      1676        14  SOPE      H11S           14.5193910379        7.8142067817        9.4215199493  MEMB      14              0.0000000000
      1677        14  SOPE      C212           13.6410910993        6.5373322746        7.8317445287  MEMB      14              0.0000000000
      1678        14  SOPE      H12R           12.6991552412        7.1022418462        7.9989412378  MEMB      14              0.0000000000
      1679        14  SOPE      H12S           13.6122235826        5.4589554604        7.5660536659  MEMB      14              0.0000000000
      1680        14  SOPE      C213           14.3015533470        7.1373083036        6.6161894805  MEMB      14              0.0000000000
      1681        14  SOPE      H13R           15.3947918509        6.9398848992        6.6029538145  MEMB      14              0.0000000000
      1682        14  SOPE      H13S           14.1398945410        8.2362359962        6.5928352261  MEMB      14              0.0000000000
      1683        14  SOPE      C214           13.6464506632        6.6090205749        5.3656573081  MEMB      14              0.0000000000
      1684        14  SOPE      H14R           12.5491669803        6.7828008447        5.3561508306  MEMB      14              0.0000000000
      1685        14  SOPE      H14S           13.8073594365        5.5099395737        5.3444385203  MEMB      14              0.0000000000
      1686        14  SOPE      C215           14.2137544071        7.2577567329        4.0751066222  MEMB      14              0.0000000000
      1687        14  SOPE      H15R           13.9395238519        6.5320729224        3.2798083344  MEMB      14              0.0000000000
      1688        14  SOPE      H15S           15.2978799736        7.4707747056        3.9584228434  MEMB      14              0.0000000000
      1689        14  SOPE      C216           13.4743507993        8.5905627039        3.7953688770  MEMB      14              0.0000000000
      1690        14  SOPE      H16R           13.5437042055        9.2059581604        4.7177565438  MEMB      14              0.0000000000
      1691        14  SOPE      H16S           12.3810934234        8.3932660091        3.7818527413  MEMB      14              0.0000000000
      1692        14  SOPE      C217           13.8779269057        9.3365722195        2.5483614290  MEMB      14              0.0000000000
      1693        14  SOPE      H17R           14.9854269603        9.4241694618        2.5388297355  MEMB      14              0.0000000000
      1694        14  SOPE      H17S           13.3507172805       10.3143924608        2.5637959915  MEMB      14              0.0000000000
      1695        14  SOPE      C218           13.5169022627        8.5952064592        1.3124871965  MEMB      14              0.0000000000
      1696        14  SOPE      H18R           13.8580714543        7.5386211797        1.3518839237  MEMB      14              0.0000000000
      1697        14  SOPE      H18S           13.9024397602        9.1404117361        0.4245491300  MEMB      14              0.0000000000
      1698        14  SOPE      H18T           12.4115497102        8.6442453093        1.2119286471  MEMB      14              0.0000000000
      1699        14  SOPE      C33            14.3051628445       12.7055490915       14.2494424228  MEMB      14              0.0000000000
      1700        14  SOPE      H3X            13.9496149431       11.7506302419       13.8066818878  MEMB      14              0.0000000000
      1701        14  SOPE      H3Y            14.6239223062       12.3333172852       15.2465166463  MEMB      14              0.0000000000
      1702        14  SOPE      C34            15.5727364559       13.2909806700       13.6600049771  MEMB      14              0.0000000000
      1703        14  SOPE      H4X            15.7763347646       14.1857565800       14.2862992262  MEMB      14              0.0000000000
      1704        14  SOPE      H4Y            15.3671464160       13.5748865032       12.6057511435  MEMB      14              0.0000000000
      1705        14  SOPE      C35            16.7680508009       12.4024596330       13.6277877920  MEMB      14              0.0000000000
      1706        14  SOPE      H5X            16.8652931243       11.9555581498       14.6402814581  MEMB      14              0.0000000000
      1707        14  SOPE      H5Y            17.6965340181       12.9260158964       13.3145319420  MEMB      14              0.0000000000
      1708        14  SOPE      C36            16.5464259076       11.2584846616       12.6161268412  MEMB      14              0.0000000000
      1709        14  SOPE      H6X            15.6937403027       10.6101013626       12.9108258529  MEMB      14              0.0000000000
      1710        14  SOPE      H6Y            17.5262710089       10.7509616530       12.7451422314  MEMB      14              0.0000000000
      1711        14  SOPE      C37            16.5714356743       11.7113214572       11.1685027980  MEMB      14              0.0000000000
      1712        14  SOPE      H7X            17.5669430322       12.1336145226       10.9136433648  MEMB      14              0.0000000000
      1713        14  SOPE      H7Y            15.8151111616       12.5090775720       11.0076307870  MEMB      14              0.0000000000
      1714        14  SOPE      C38            16.4631616851       10.5271999207       10.2287780454  MEMB      14              0.0000000000
      1715        14  SOPE      H8X            15.5248068942        9.9779378058       10.4570816675  MEMB      14              0.0000000000
      1716        14  SOPE      H8Y            17.2439570016        9.7633132965       10.4316495434  MEMB      14              0.0000000000
      1717        14  SOPE      C39            16.6626152986       10.7986342600        8.7420354996  MEMB      14              0.0000000000
      1718        14  SOPE      H9X            17.0636886791        9.8948198790        8.2354974456  MEMB      14              0.0000000000
      1719        14  SOPE      H9Y            17.4070182348       11.6231592113        8.7234940517  MEMB      14              0.0000000000
      1720        14  SOPE      C310           15.5358825173       11.1920674798        7.8926420652  MEMB      14              0.0000000000
      1721        14  SOPE      H10X           14.8416791196       11.8892887471        8.4086705240  MEMB      14              0.0000000000
      1722        14  SOPE      H10Y           14.9829404701       10.2563378055        7.6624550684  MEMB      14              0.0000000000
      1723        14  SOPE      C311           15.9720213364       11.8178191062        6.5165511522  MEMB      14              0.0000000000
      1724        14  SOPE      H11X           16.4743555143       12.7676289716        6.7991159810  MEMB      14              0.0000000000
      1725        14  SOPE      H11Y           14.9933374730       12.1434006000        6.1036404394  MEMB      14              0.0000000000
      1726        14  SOPE      C312           16.8030022218       10.9293555357        5.6017887903  MEMB      14              0.0000000000
      1727        14  SOPE      H12X           16.3856865805        9.9011162752        5.5480047746  MEMB      14              0.0000000000
      1728        14  SOPE      H12Y           17.7604641732       10.9907548473        6.1619828032  MEMB      14              0.0000000000
      1729        14  SOPE      C313           17.0693256592       11.4362327604        4.1820812563  MEMB      14              0.0000000000
      1730        14  SOPE      H13X           17.4443493857       12.4793959333        4.2561657344  MEMB      14              0.0000000000
      1731        14  SOPE      H13Y           16.1092200911       11.5410311073        3.6329587770  MEMB      14              0.0000000000
      1732        14  SOPE      C314           18.1169310038       10.5329815191        3.4922995864  MEMB      14              0.0000000000
      1733        14  SOPE      H14X           17.7470468398        9.5065066226        3.7017170724  MEMB      14              0.0000000000
      1734        14  SOPE      H14Y           19.0878947712       10.5961984941        4.0285396809  MEMB      14              0.0000000000
      1735        14  SOPE      C315           18.3414060980       10.8934672871        1.9557798709  MEMB      14              0.0000000000
      1736        14  SOPE      H15X           19.1976416831       10.2708544883        1.6188322662  MEMB      14              0.0000000000
      1737        14  SOPE      H15Y           18.4908018243       11.9938624039        1.9221260857  MEMB      14              0.0000000000
      1738        14  SOPE      C316           17.1508468166       10.4355736427        1.0960044750  MEMB      14              0.0000000000
      1739        14  SOPE      H16X           16.1664524512       10.7238399182        1.5228429417  MEMB      14              0.0000000000
      1740        14  SOPE      H16Y           17.1308844176        9.3247555965        1.0936115615  MEMB      14              0.0000000000
      1741        14  SOPE      C317           17.2509518487       10.8300596932       -0.3417627659  MEMB      14              0.0000000000
      1742        14  SOPE      H17X           17.0417683537       11.8928963912       -0.5886260417  MEMB      14              0.0000000000
      1743        14  SOPE      H17Y           16.5205214374       10.1417687989       -0.8182581382  MEMB      14              0.0000000000
      1744        14  SOPE      C318           18.5836854091       10.4748383474       -1.0892207411  MEMB      14              0.0000000000
      1745        14  SOPE      H18X           18.8064686377        9.4040747954       -0.8938907644  MEMB      14              0.0000000000
      1746        14  SOPE      H18Y           19.4072443078       11.0878601845       -0.6646313345  MEMB      14              0.0000000000
      1747        14  SOPE      H18Z           18.4588079858       10.6437010659       -2.1801896021  MEMB      14              0.0000000000
      1748        15  SAPS      N               5.1011910768       13.7304498117       20.9564655329  MEMB      15              0.0000000000
      1749        15  SAPS      HN1             4.8314671662       12.8740907389       21.4813447669  MEMB      15              0.0000000000
      1750        15  SAPS      HN2             4.6565647196       14.5953976875       21.3249387347  MEMB      15              0.0000000000
      1751        15  SAPS      HN3             4.9583318950       13.5128959172       19.9495585873  MEMB      15              0.0000000000
      1752        15  SAPS      C12             6.5363060032       13.9283029819       21.0894701383  MEMB      15              0.0000000000
      1753        15  SAPS      H12A            6.6790510215       14.7937495192       21.7195703831  MEMB      15              0.0000000000
      1754        15  SAPS      C13             7.3020013231       12.7748873072       21.7835875866  MEMB      15              0.0000000000
      1755        15  SAPS      O13A            6.6672833866       11.7482818424       22.0591228403  MEMB      15              0.0000000000
      1756        15  SAPS      O13B            8.5411430019       12.9469128878       21.8606518378  MEMB      15              0.0000000000
      1757        15  SAPS      C11             7.3035083293       14.1247813651       19.7673399072  MEMB      15              0.0000000000
      1758        15  SAPS      H11A            7.5249494232       13.1027624738       19.3921569782  MEMB      15              0.0000000000
      1759        15  SAPS      H11B            8.3488199407       14.5002289602       19.7411901826  MEMB      15              0.0000000000
      1760        15  SAPS      P               6.8016343571       16.3759022131       18.5290146269  MEMB      15              0.0000000000
      1761        15  SAPS      O13             5.9310887420       16.8305891371       17.3715728764  MEMB      15              0.0000000000
      1762        15  SAPS      O14             6.7705821780       17.1085256462       19.8463746950  MEMB      15              0.0000000000
      1763        15  SAPS      O12             6.4389059673       14.8222335618       18.8782482740  MEMB      15              0.0000000000
      1764        15  SAPS      O11             8.2253753566       16.2869384343       17.8581516805  MEMB      15              0.0000000000
      1765        15  SAPS      C1              8.1569779419       15.3982213423       16.6298547859  MEMB      15              0.0000000000
      1766        15  SAPS      HA              8.7110807115       14.4679654697       16.8786821167  MEMB      15              0.0000000000
      1767        15  SAPS      HB              7.1477198830       15.0876361663       16.2845201928  MEMB      15              0.0000000000
      1768        15  SAPS      C2              8.8047331027       16.0535445137       15.4442955527  MEMB      15              0.0000000000
      1769        15  SAPS      HS              9.7497848461       16.4581641191       15.8655802364  MEMB      15              0.0000000000
      1770        15  SAPS      O21             7.9311105720       17.0981735310       15.0196395665  MEMB      15              0.0000000000
      1771        15  SAPS      C21             8.4535881382       18.1142014405       14.2371713617  MEMB      15              0.0000000000
      1772        15  SAPS      O22             9.6171332313       18.3255372353       14.0255434037  MEMB      15              0.0000000000
      1773        15  SAPS      C22             7.3289280836       19.1916050594       14.1418277484  MEMB      15              0.0000000000
      1774        15  SAPS      H2R             6.6638529526       19.1050758968       15.0275527180  MEMB      15              0.0000000000
      1775        15  SAPS      H2S             7.6552043405       20.2530012239       14.1057240426  MEMB      15              0.0000000000
      1776        15  SAPS      C3              8.9963819830       15.0932850867       14.2283317070  MEMB      15              0.0000000000
      1777        15  SAPS      HX              9.6870313500       14.3066468398       14.6005203869  MEMB      15              0.0000000000
      1778        15  SAPS      HY              9.4843205404       15.5704158487       13.3516424116  MEMB      15              0.0000000000
      1779        15  SAPS      O31             7.6552302147       14.5067524049       13.9689702429  MEMB      15              0.0000000000
      1780        15  SAPS      C31             7.2842399879       14.3743272369       12.7552931634  MEMB      15              0.0000000000
      1781        15  SAPS      O32             7.9204812202       14.6537295825       11.7293729978  MEMB      15              0.0000000000
      1782        15  SAPS      C32             5.7772129895       13.9134961230       12.6848749161  MEMB      15              0.0000000000
      1783        15  SAPS      H2X             5.2631827560       14.6559036186       13.3321193634  MEMB      15              0.0000000000
      1784        15  SAPS      H2Y             5.6747647754       12.9575561604       13.2416552103  MEMB      15              0.0000000000
      1785        15  SAPS      C23             6.4254803958       18.8204248605       12.9701983461  MEMB      15              0.0000000000
      1786        15  SAPS      H3R             5.4938744867       19.4257519171       12.9733614414  MEMB      15              0.0000000000
      1787        15  SAPS      H3S             6.0062291071       17.8162134094       13.1940484462  MEMB      15              0.0000000000
      1788        15  SAPS      C24             7.0482649603       18.8979524768       11.5767396778  MEMB      15              0.0000000000
      1789        15  SAPS      H4R             7.8431338992       18.1227729467       11.5367286143  MEMB      15              0.0000000000
      1790        15  SAPS      H4S             7.4336506947       19.9392183344       11.6162864196  MEMB      15              0.0000000000
      1791        15  SAPS      C25             6.0893365915       18.7209745516       10.4123016370  MEMB      15              0.0000000000
      1792        15  SAPS      H5R             5.0442840070       18.5110288622       10.6839416294  MEMB      15              0.0000000000
      1793        15  SAPS      C26             6.4356587389       18.6862756290        9.0867249066  MEMB      15              0.0000000000
      1794        15  SAPS      H6R             5.6117986660       18.3950055859        8.4185809101  MEMB      15              0.0000000000
      1795        15  SAPS      C27             7.8406987520       18.8094436505        8.6008224599  MEMB      15              0.0000000000
      1796        15  SAPS      H7R             8.3855063656       17.9328762676        9.0120824966  MEMB      15              0.0000000000
      1797        15  SAPS      H7S             8.4245301910       19.6898946137        8.9447233750  MEMB      15              0.0000000000
      1798        15  SAPS      C28             7.7713440110       18.8823457657        7.0439132061  MEMB      15              0.0000000000
      1799        15  SAPS      H8R             6.8288225699       19.2110082488        6.5817081101  MEMB      15              0.0000000000
      1800        15  SAPS      C29             8.6528466532       18.4320499631        6.1074856825  MEMB      15              0.0000000000
      1801        15  SAPS      H9R             8.6239974427       18.7895212572        5.0675909833  MEMB      15              0.0000000000
      1802        15  SAPS      C210            9.9611535262       17.7071400442        6.3004525346  MEMB      15              0.0000000000
      1803        15  SAPS      H10R           10.0842738759       17.5961482183        7.3990162646  MEMB      15              0.0000000000
      1804        15  SAPS      H10S           10.7842630268       18.4228839300        6.0894484757  MEMB      15              0.0000000000
      1805        15  SAPS      C211           10.1015255061       16.4405589761        5.5529934533  MEMB      15              0.0000000000
      1806        15  SAPS      H11R            9.4502229002       15.6406962223        5.9351249054  MEMB      15              0.0000000000
      1807        15  SAPS      C212           10.7318151909       16.3624054362        4.3927090138  MEMB      15              0.0000000000
      1808        15  SAPS      H12R           10.7192669710       15.4068844363        3.8478944425  MEMB      15              0.0000000000
      1809        15  SAPS      C213           11.4200456997       17.5527787518        3.6282881436  MEMB      15              0.0000000000
      1810        15  SAPS      H13R           12.3258763205       17.1885769945        3.0980535276  MEMB      15              0.0000000000
      1811        15  SAPS      H13S           11.9201837599       18.1777305826        4.3987546148  MEMB      15              0.0000000000
      1812        15  SAPS      C214           10.5907805214       18.3197039726        2.5659604243  MEMB      15              0.0000000000
      1813        15  SAPS      H14R            9.7639800505       18.9343689538        2.9514320681  MEMB      15              0.0000000000
      1814        15  SAPS      C215           10.8080369068       18.4199129233        1.2310493576  MEMB      15              0.0000000000
      1815        15  SAPS      H15R           10.0964430974       18.9822373786        0.6086153740  MEMB      15              0.0000000000
      1816        15  SAPS      C216           11.9068489866       17.8272553828        0.3918177900  MEMB      15              0.0000000000
      1817        15  SAPS      H16R           12.7459109177       17.6078330068        1.0861881037  MEMB      15              0.0000000000
      1818        15  SAPS      H16S           12.1233723810       18.4958399253       -0.4686662698  MEMB      15              0.0000000000
      1819        15  SAPS      C217           11.5598457353       16.4702847601       -0.3024855745  MEMB      15              0.0000000000
      1820        15  SAPS      H17R           10.8820390294       16.7148331704       -1.1481191806  MEMB      15              0.0000000000
      1821        15  SAPS      H17S           10.8784154505       15.9705296347        0.4187759622  MEMB      15              0.0000000000
      1822        15  SAPS      C218           12.7989948001       15.5507432385       -0.7446885100  MEMB      15              0.0000000000
      1823        15  SAPS      H18R           13.5849975404       15.4972362188        0.0386735570  MEMB      15              0.0000000000
      1824        15  SAPS      H18S           13.3454050462       15.9791180307       -1.6120140016  MEMB      15              0.0000000000
      1825        15  SAPS      C219           12.3674984514       14.0935862210       -1.1454913713  MEMB      15              0.0000000000
      1826        15  SAPS      H19R           13.2936692376       13.5239030408       -1.3735036341  MEMB      15              0.0000000000
      1827        15  SAPS      H19S           11.8853807412       14.1511506142       -2.1447750320  MEMB      15              0.0000000000
      1828        15  SAPS      C220           11.4841468981       13.2928006093       -0.2174331806  MEMB      15              0.0000000000
      1829        15  SAPS      H20R           10.6128061748       13.9219010121        0.0642008616  MEMB      15              0.0000000000
      1830        15  SAPS      H20S           12.1581599803       13.1484297821        0.6538772388  MEMB      15              0.0000000000
      1831        15  SAPS      H20T           11.2337506232       12.3045972604       -0.6591099434  MEMB      15              0.0000000000
      1832        15  SAPS      C33             5.1464431604       14.0481478462       11.2824149931  MEMB      15              0.0000000000
      1833        15  SAPS      H3X             5.4944490301       13.2867257977       10.5520392648  MEMB      15              0.0000000000
      1834        15  SAPS      H3Y             5.5618296757       15.0008830654       10.8898969746  MEMB      15              0.0000000000
      1835        15  SAPS      C34             3.6306180299       13.9689488950       11.2250031408  MEMB      15              0.0000000000
      1836        15  SAPS      H4X             3.1395940089       14.7947588303       11.7829048391  MEMB      15              0.0000000000
      1837        15  SAPS      H4Y             3.3976968906       12.9614733861       11.6312815774  MEMB      15              0.0000000000
      1838        15  SAPS      C35             3.0336262997       14.0788582844        9.8277168478  MEMB      15              0.0000000000
      1839        15  SAPS      H5X             1.9884722245       13.7123438521        9.7403041441  MEMB      15              0.0000000000
      1840        15  SAPS      H5Y             3.7237902653       13.4395154897        9.2367559330  MEMB      15              0.0000000000
      1841        15  SAPS      C36             3.2303505536       15.4870972195        9.1428785120  MEMB      15              0.0000000000
      1842        15  SAPS      H6X             4.2385358130       15.9338115569        9.2782666409  MEMB      15              0.0000000000
      1843        15  SAPS      H6Y             2.4955327408       16.2054583334        9.5651593889  MEMB      15              0.0000000000
      1844        15  SAPS      C37             3.1033061329       15.2975978560        7.5821878471  MEMB      15              0.0000000000
      1845        15  SAPS      H7X             2.0138691925       15.4779145095        7.4599833794  MEMB      15              0.0000000000
      1846        15  SAPS      H7Y             3.3233860121       14.2762998815        7.2042507436  MEMB      15              0.0000000000
      1847        15  SAPS      C38             3.8663606339       16.4620029094        6.8493329667  MEMB      15              0.0000000000
      1848        15  SAPS      H8X             4.8739133874       16.4692045869        7.3174208775  MEMB      15              0.0000000000
      1849        15  SAPS      H8Y             3.4528539739       17.4883324197        6.9492393643  MEMB      15              0.0000000000
      1850        15  SAPS      C39             4.2189728972       16.2689057025        5.3658735911  MEMB      15              0.0000000000
      1851        15  SAPS      H9X             5.0862235140       16.9271653963        5.1447590206  MEMB      15              0.0000000000
      1852        15  SAPS      H9Y             3.4117518293       16.7555182944        4.7777211321  MEMB      15              0.0000000000
      1853        15  SAPS      C310            4.4315907100       14.8343389193        4.8050835758  MEMB      15              0.0000000000
      1854        15  SAPS      H10X            3.4368305406       14.3399005242        4.7876726187  MEMB      15              0.0000000000
      1855        15  SAPS      H10Y            5.1961827182       14.3434424896        5.4444121836  MEMB      15              0.0000000000
      1856        15  SAPS      C311            5.0882295215       14.8691021515        3.4174453586  MEMB      15              0.0000000000
      1857        15  SAPS      H11X            4.6116842859       15.7121405501        2.8729166478  MEMB      15              0.0000000000
      1858        15  SAPS      H11Y            4.7817789176       13.8758320429        3.0252407952  MEMB      15              0.0000000000
      1859        15  SAPS      C312            6.6056882893       14.8980953441        3.5058174894  MEMB      15              0.0000000000
      1860        15  SAPS      H12X            6.9501419672       14.0011230354        4.0635927031  MEMB      15              0.0000000000
      1861        15  SAPS      H12Y            6.9365790009       15.7694749350        4.1104079454  MEMB      15              0.0000000000
      1862        15  SAPS      C313            7.1882262879       14.9850111525        2.0752725965  MEMB      15              0.0000000000
      1863        15  SAPS      H13X            6.8482597590       14.0151221772        1.6533026433  MEMB      15              0.0000000000
      1864        15  SAPS      H13Y            8.2911886783       15.1122391764        2.0351731779  MEMB      15              0.0000000000
      1865        15  SAPS      C314            6.6682488518       16.1066900654        1.1251682379  MEMB      15              0.0000000000
      1866        15  SAPS      H14X            5.5662878162       15.9964315851        1.0365910715  MEMB      15              0.0000000000
      1867        15  SAPS      H14Y            7.2010260060       16.1640665617        0.1519372947  MEMB      15              0.0000000000
      1868        15  SAPS      C315            6.8401295213       17.5750587942        1.6490683608  MEMB      15              0.0000000000
      1869        15  SAPS      H15X            7.9096055028       17.8725467638        1.6942690960  MEMB      15              0.0000000000
      1870        15  SAPS      H15Y            6.2964015382       17.6163816196        2.6170426114  MEMB      15              0.0000000000
      1871        15  SAPS      C316            6.3206741727       18.7492861746        0.7203945686  MEMB      15              0.0000000000
      1872        15  SAPS      H16X            6.9236784043       18.6343421854       -0.2056162057  MEMB      15              0.0000000000
      1873        15  SAPS      H16Y            6.6514837458       19.7059510756        1.1783002524  MEMB      15              0.0000000000
      1874        15  SAPS      C317            4.8188130851       18.6426606046        0.6203738933  MEMB      15              0.0000000000
      1875        15  SAPS      H17X            4.4410766432       17.8712211239       -0.0842661332  MEMB      15              0.0000000000
      1876        15  SAPS      H17Y            4.5314967188       19.4715071629       -0.0613766321  MEMB      15              0.0000000000
      1877        15  SAPS      C318            4.0265943519       18.4839279266        1.9297347408  MEMB      15              0.0000000000
      1878        15  SAPS      H18X            4.0810807990       19.4581621190        2.4609789288  MEMB      15              0.0000000000
      1879        15  SAPS      H18Y            4.3963842734       17.7550851293        2.6823075727  MEMB      15              0.0000000000
      1880        15  SAPS      H18Z            2.9237116947       18.4094159442        1.8182944198  MEMB      15              0.0000000000
      1881        16  SAPC      N               6.4228578259      -13.4130503300       20.1357199468  MEMB      16              0.0000000000
      1882        16  SAPC      C12             7.4456395208      -14.1441373559       19.3534244973  MEMB      16              0.0000000000
      1883        16  SAPC      H12A            8.3922231105      -14.0647249399       19.8673048935  MEMB      16              0.0000000000
      1884        16  SAPC      H12B            7.7081806663      -13.5437677624       18.4949208580  MEMB      16              0.0000000000
      1885        16  SAPC      C13             6.4626405231      -13.8745544318       21.5444573822  MEMB      16              0.0000000000
      1886        16  SAPC      H13A            5.7894016718      -14.7181599499       21.5829186195  MEMB      16              0.0000000000
      1887        16  SAPC      H13B            7.4246167005      -14.2312381492       21.8817683904  MEMB      16              0.0000000000
      1888        16  SAPC      H13C            6.0685282673      -13.1229947164       22.2124644058  MEMB      16              0.0000000000
      1889        16  SAPC      C14             6.7089129499      -11.9638413829       20.1355092362  MEMB      16              0.0000000000
      1890        16  SAPC      H14A            7.7602853555      -11.9451652520       20.3818168399  MEMB      16              0.0000000000
      1891        16  SAPC      H14B            6.6074316186      -11.5588817325       19.1394624874  MEMB      16              0.0000000000
      1892        16  SAPC      H14C            6.0722882878      -11.4008584107       20.8019618277  MEMB      16              0.0000000000
      1893        16  SAPC      C15             5.0140777637      -13.5285387705       19.6796770685  MEMB      16              0.0000000000
      1894        16  SAPC      H15A            4.7382266462      -14.5538164278       19.8774441518  MEMB      16              0.0000000000
      1895        16  SAPC      H15B            4.3667939527      -12.8324487687       20.1923978731  MEMB      16              0.0000000000
      1896        16  SAPC      H15C            4.9478046226      -13.4464815267       18.6048400391  MEMB      16              0.0000000000
      1897        16  SAPC      C11             7.1835504801      -15.5609897619       18.9929682937  MEMB      16              0.0000000000
      1898        16  SAPC      H11A            8.0659307830      -15.9508879165       18.4418734619  MEMB      16              0.0000000000
      1899        16  SAPC      H11B            6.3290627435      -15.5534329283       18.2829580332  MEMB      16              0.0000000000
      1900        16  SAPC      P               5.6466373327      -17.3224630883       20.0629312210  MEMB      16              0.0000000000
      1901        16  SAPC      O13             5.6939300354      -18.2478557571       21.2623656292  MEMB      16              0.0000000000
      1902        16  SAPC      O14             4.4098797949      -16.5450057504       19.9480996956  MEMB      16              0.0000000000
      1903        16  SAPC      O12             6.8796115504      -16.3867991816       20.1417483379  MEMB      16              0.0000000000
      1904        16  SAPC      O11             5.8215096929      -18.1835307382       18.7430986902  MEMB      16              0.0000000000
      1905        16  SAPC      C1              6.7289378486      -19.3027481424       18.8829282584  MEMB      16              0.0000000000
      1906        16  SAPC      HA              7.7902164311      -19.0695362180       19.1144902658  MEMB      16              0.0000000000
      1907        16  SAPC      HB              6.3543072048      -20.0009228848       19.6617254361  MEMB      16              0.0000000000
      1908        16  SAPC      C2              6.6721393482      -20.0581566931       17.5132666959  MEMB      16              0.0000000000
      1909        16  SAPC      HS              7.4264702307      -20.8714153455       17.4506889330  MEMB      16              0.0000000000
      1910        16  SAPC      O21             6.8866855508      -19.0617562115       16.4790227402  MEMB      16              0.0000000000
      1911        16  SAPC      C21             7.9463612199      -18.3162674400       16.4130468323  MEMB      16              0.0000000000
      1912        16  SAPC      O22             8.9087227103      -18.3944523942       17.1473444080  MEMB      16              0.0000000000
      1913        16  SAPC      C22             7.8384246354      -17.2881859906       15.2915461137  MEMB      16              0.0000000000
      1914        16  SAPC      H2R             6.7546227434      -17.0560996179       15.3679021958  MEMB      16              0.0000000000
      1915        16  SAPC      H2S             8.5100966790      -16.4086825916       15.3897871646  MEMB      16              0.0000000000
      1916        16  SAPC      C3              5.3018601252      -20.7571841054       17.2403428604  MEMB      16              0.0000000000
      1917        16  SAPC      HX              4.4626692181      -20.0586783453       17.4456936515  MEMB      16              0.0000000000
      1918        16  SAPC      HY              5.1582920133      -21.6821294388       17.8388291933  MEMB      16              0.0000000000
      1919        16  SAPC      O31             5.2956931422      -21.1623475779       15.8043838144  MEMB      16              0.0000000000
      1920        16  SAPC      C31             4.5498563726      -20.4707937058       14.9164292077  MEMB      16              0.0000000000
      1921        16  SAPC      O32             3.7779938195      -19.5677873123       15.2245884541  MEMB      16              0.0000000000
      1922        16  SAPC      C32             4.8895915786      -20.9971528275       13.5109652552  MEMB      16              0.0000000000
      1923        16  SAPC      H2X             4.2336298982      -21.8831285255       13.3728261330  MEMB      16              0.0000000000
      1924        16  SAPC      H2Y             5.9719737410      -21.1922666549       13.3538016620  MEMB      16              0.0000000000
      1925        16  SAPC      C23             8.0514988093      -18.1343581568       13.9661884275  MEMB      16              0.0000000000
      1926        16  SAPC      H3R             7.4722318206      -19.0783413956       14.0537463249  MEMB      16              0.0000000000
      1927        16  SAPC      H3S             9.0873922092      -18.5320504984       14.0217451793  MEMB      16              0.0000000000
      1928        16  SAPC      C24             7.7240517115      -17.4664502776       12.5361479440  MEMB      16              0.0000000000
      1929        16  SAPC      H4R             6.8677578697      -16.7830879885       12.7208035485  MEMB      16              0.0000000000
      1930        16  SAPC      H4S             7.3449822000      -18.2980799879       11.9044677884  MEMB      16              0.0000000000
      1931        16  SAPC      C25             8.8325497218      -16.6875442419       11.8774326499  MEMB      16              0.0000000000
      1932        16  SAPC      H5R             9.0139550555      -15.7512841215       12.4256192676  MEMB      16              0.0000000000
      1933        16  SAPC      C26             9.6042053393      -16.9813935871       10.7686653042  MEMB      16              0.0000000000
      1934        16  SAPC      H6R            10.4081998551      -16.2644638328       10.5459435404  MEMB      16              0.0000000000
      1935        16  SAPC      C27             9.6237277582      -18.1796870992        9.8736747842  MEMB      16              0.0000000000
      1936        16  SAPC      H7R            10.1694942205      -18.9232074710       10.4930595865  MEMB      16              0.0000000000
      1937        16  SAPC      H7S            10.2654801257      -17.9932331201        8.9861440740  MEMB      16              0.0000000000
      1938        16  SAPC      C28             8.1967484961      -18.8096990963        9.5210220435  MEMB      16              0.0000000000
      1939        16  SAPC      H8R             8.2849627947      -19.8925291814        9.3486937642  MEMB      16              0.0000000000
      1940        16  SAPC      C29             7.0368872427      -18.2517858283        9.1074276225  MEMB      16              0.0000000000
      1941        16  SAPC      H9R             6.2293942786      -18.8598353851        8.6735720656  MEMB      16              0.0000000000
      1942        16  SAPC      C210            6.7853175890      -16.7809797665        8.8598129579  MEMB      16              0.0000000000
      1943        16  SAPC      H10R            7.7375003642      -16.2088626038        8.8785463397  MEMB      16              0.0000000000
      1944        16  SAPC      H10S            6.1227090572      -16.3717299573        9.6521425479  MEMB      16              0.0000000000
      1945        16  SAPC      C211            6.1178760226      -16.6202826182        7.5466912362  MEMB      16              0.0000000000
      1946        16  SAPC      H11R            5.0417303918      -16.4245426966        7.6632954220  MEMB      16              0.0000000000
      1947        16  SAPC      C212            6.7791615647      -16.5383067222        6.4304762872  MEMB      16              0.0000000000
      1948        16  SAPC      H12R            6.2537853589      -16.5904548633        5.4654571228  MEMB      16              0.0000000000
      1949        16  SAPC      C213            8.2912341589      -16.6413550040        6.4510609527  MEMB      16              0.0000000000
      1950        16  SAPC      H13R            8.6629036042      -17.5905184213        6.8929562455  MEMB      16              0.0000000000
      1951        16  SAPC      H13S            8.7714769078      -15.8313656526        7.0406414352  MEMB      16              0.0000000000
      1952        16  SAPC      C214            8.8752270475      -16.4979244648        5.0427193805  MEMB      16              0.0000000000
      1953        16  SAPC      H14R            8.9886403240      -15.4431952541        4.7517153269  MEMB      16              0.0000000000
      1954        16  SAPC      C215            9.2401250829      -17.6048787724        4.3818265170  MEMB      16              0.0000000000
      1955        16  SAPC      H15R            9.6687258619      -17.4599398338        3.3791821976  MEMB      16              0.0000000000
      1956        16  SAPC      C216            9.0737930173      -19.0352535596        4.7626393813  MEMB      16              0.0000000000
      1957        16  SAPC      H16R            8.0908954452      -19.1522932445        5.2671547378  MEMB      16              0.0000000000
      1958        16  SAPC      H16S            9.7949048752      -19.3145268158        5.5603398672  MEMB      16              0.0000000000
      1959        16  SAPC      C217            9.2509952834      -20.0371659330        3.5539169270  MEMB      16              0.0000000000
      1960        16  SAPC      H17R            9.2776313019      -21.1087851424        3.8458823779  MEMB      16              0.0000000000
      1961        16  SAPC      H17S           10.2887544878      -19.8396603026        3.2098703374  MEMB      16              0.0000000000
      1962        16  SAPC      C218            8.3683038707      -19.8263842783        2.3324615795  MEMB      16              0.0000000000
      1963        16  SAPC      H18R            8.7792457320      -20.5389398830        1.5856607461  MEMB      16              0.0000000000
      1964        16  SAPC      H18S            8.4602728199      -18.7940616685        1.9322465664  MEMB      16              0.0000000000
      1965        16  SAPC      C219            6.8455174252      -20.1096789704        2.6017446361  MEMB      16              0.0000000000
      1966        16  SAPC      H19R            6.4106168363      -19.3236700252        3.2554816706  MEMB      16              0.0000000000
      1967        16  SAPC      H19S            6.6316599503      -20.9996817078        3.2314114150  MEMB      16              0.0000000000
      1968        16  SAPC      C220            5.9784938689      -20.3143495662        1.3824925677  MEMB      16              0.0000000000
      1969        16  SAPC      H20R            4.8900700585      -20.3581434188        1.6009800216  MEMB      16              0.0000000000
      1970        16  SAPC      H20S            6.3758418563      -21.3051043091        1.0745304812  MEMB      16              0.0000000000
      1971        16  SAPC      H20T            6.2935609080      -19.5546783428        0.6355293432  MEMB      16              0.0000000000
      1972        16  SAPC      C33             4.2923147569      -20.0023235036       12.4531110148  MEMB      16              0.0000000000
      1973        16  SAPC      H3X             4.8217335852      -19.0436309905       12.6400478525  MEMB      16              0.0000000000
      1974        16  SAPC      H3Y             3.1932648962      -19.8414788146       12.4763420305  MEMB      16              0.0000000000
      1975        16  SAPC      C34             4.7146449825      -20.3101298466       11.0488786261  MEMB      16              0.0000000000
      1976        16  SAPC      H4X             5.8175147524      -20.2069107678       10.9631754149  MEMB      16              0.0000000000
      1977        16  SAPC      H4Y             4.4272938249      -19.4065706248       10.4698007332  MEMB      16              0.0000000000
      1978        16  SAPC      C35             4.1288856582      -21.6998530994       10.5035959800  MEMB      16              0.0000000000
      1979        16  SAPC      H5X             3.0253751691      -21.7689192819       10.3948975892  MEMB      16              0.0000000000
      1980        16  SAPC      H5Y             4.4677729819      -22.3993478940       11.2974366018  MEMB      16              0.0000000000
      1981        16  SAPC      C36             4.7485764813      -22.2783687237        9.1704601313  MEMB      16              0.0000000000
      1982        16  SAPC      H6X             4.4211796344      -23.3381904991        9.1079276464  MEMB      16              0.0000000000
      1983        16  SAPC      H6Y             5.8570316948      -22.2380971223        9.2339133021  MEMB      16              0.0000000000
      1984        16  SAPC      C37             4.2572233993      -21.5123647644        7.9542270518  MEMB      16              0.0000000000
      1985        16  SAPC      H7X             4.4248705674      -20.4355454300        8.1702715210  MEMB      16              0.0000000000
      1986        16  SAPC      H7Y             3.1611550729      -21.6232608931        7.8105013261  MEMB      16              0.0000000000
      1987        16  SAPC      C38             4.9167496040      -21.7164334292        6.5649028824  MEMB      16              0.0000000000
      1988        16  SAPC      H8X             5.2300386791      -22.7812622693        6.5168329380  MEMB      16              0.0000000000
      1989        16  SAPC      H8Y             5.8328039909      -21.0935321237        6.6495149936  MEMB      16              0.0000000000
      1990        16  SAPC      C39             4.1489468086      -21.2387286330        5.3969682733  MEMB      16              0.0000000000
      1991        16  SAPC      H9X             3.3269523698      -21.8779214806        5.0095683756  MEMB      16              0.0000000000
      1992        16  SAPC      H9Y             4.8696732297      -21.2343358984        4.5514766961  MEMB      16              0.0000000000
      1993        16  SAPC      C310            3.5555233432      -19.8190925135        5.4225505570  MEMB      16              0.0000000000
      1994        16  SAPC      H10X            4.3817869294      -19.2088607866        5.8459025218  MEMB      16              0.0000000000
      1995        16  SAPC      H10Y            2.7219487499      -19.7536090798        6.1541148825  MEMB      16              0.0000000000
      1996        16  SAPC      C311            3.2131526779      -19.3909810482        4.0008043579  MEMB      16              0.0000000000
      1997        16  SAPC      H11X            2.4859534500      -20.1494597411        3.6399527733  MEMB      16              0.0000000000
      1998        16  SAPC      H11Y            4.1049065820      -19.5704022558        3.3629137735  MEMB      16              0.0000000000
      1999        16  SAPC      C312            2.5739725529      -18.0188458285        3.8120588392  MEMB      16              0.0000000000
      2000        16  SAPC      H12X            1.7232589038      -17.8591361416        4.5085492486  MEMB      16              0.0000000000
      2001        16  SAPC      H12Y            2.3573076173      -17.9452435821        2.7248783923  MEMB      16              0.0000000000
      2002        16  SAPC      C313            3.6493282799      -16.9061399760        4.0627145243  MEMB      16              0.0000000000
      2003        16  SAPC      H13X            4.6441937705      -17.3355237637        4.3080580280  MEMB      16              0.0000000000
      2004        16  SAPC      H13Y            3.0763651492      -16.2909453263        4.7890545873  MEMB      16              0.0000000000
      2005        16  SAPC      C314            4.0505530928      -16.1272467859        2.8229077992  MEMB      16              0.0000000000
      2006        16  SAPC      H14X            3.1239112839      -15.7537019887        2.3369858752  MEMB      16              0.0000000000
      2007        16  SAPC      H14Y            4.6862215039      -16.7687935409        2.1758665585  MEMB      16              0.0000000000
      2008        16  SAPC      C315            4.9764377229      -14.8808430581        3.1042772557  MEMB      16              0.0000000000
      2009        16  SAPC      H15X            5.5955782713      -15.1473123631        3.9874416695  MEMB      16              0.0000000000
      2010        16  SAPC      H15Y            4.2130185092      -14.1169350858        3.3649610285  MEMB      16              0.0000000000
      2011        16  SAPC      C316            5.8096554586      -14.4032917620        2.0102792819  MEMB      16              0.0000000000
      2012        16  SAPC      H16X            6.0890812340      -13.3466843225        2.2098347069  MEMB      16              0.0000000000
      2013        16  SAPC      H16Y            5.3097895512      -14.4753475270        1.0207017565  MEMB      16              0.0000000000
      2014        16  SAPC      C317            7.1801194345      -15.0968944483        1.8326962123  MEMB      16              0.0000000000
      2015        16  SAPC      H17X            7.0706148835      -16.1269914275        1.4311603111  MEMB      16              0.0000000000
      2016        16  SAPC      H17Y            7.5846064782      -15.1838037786        2.8637911003  MEMB      16              0.0000000000
      2017        16  SAPC      C318            8.2652536179      -14.3736080645        0.9186423446  MEMB      16              0.0000000000
      2018        16  SAPC      H18X            8.7680752162      -13.5615201565        1.4860984360  MEMB      16              0.0000000000
      2019        16  SAPC      H18Y            7.7277481113      -13.8613513240        0.0922034127  MEMB      16              0.0000000000
      2020        16  SAPC      H18Z            9.0117565897      -15.1141816867        0.5600273495  MEMB      16              0.0000000000
      2021        17  CHL1      C3             16.7082281718       -5.2766583707       17.3267350000  MEMB      17              0.0000000000
      2022        17  CHL1      H3             17.5722013507       -5.8682689168       16.9554050000  MEMB      17              0.0000000000
      2023        17  CHL1      O3             16.4690374375       -5.3598470770       18.6732650000  MEMB      17              0.0000000000
      2024        17  CHL1      H3'            17.3462907921       -5.5640590003       19.0054350000  MEMB      17              0.0000000000
      2025        17  CHL1      C4             17.1517858758       -3.8392078022       16.9792250000  MEMB      17              0.0000000000
      2026        17  CHL1      H4A            16.3630948295       -3.1433450743       17.3370850000  MEMB      17              0.0000000000
      2027        17  CHL1      H4B            18.0814195826       -3.5345676952       17.5058050000  MEMB      17              0.0000000000
      2028        17  CHL1      C5             17.5312228090       -3.7434971282       15.5063750000  MEMB      17              0.0000000000
      2029        17  CHL1      C6             18.7279439498       -3.2867865283       15.0727750000  MEMB      17              0.0000000000
      2030        17  CHL1      H6             19.4944277711       -2.9534689225       15.7878850000  MEMB      17              0.0000000000
      2031        17  CHL1      C7             19.0742840857       -3.1585429785       13.5901650000  MEMB      17              0.0000000000
      2032        17  CHL1      H7A            19.4229913253       -2.1445216044       13.2995050000  MEMB      17              0.0000000000
      2033        17  CHL1      H7B            19.8345587233       -3.8606877615       13.1860550000  MEMB      17              0.0000000000
      2034        17  CHL1      C8             17.8844958734       -3.3496783744       12.5881750000  MEMB      17              0.0000000000
      2035        17  CHL1      H8             17.3164252206       -2.3963356656       12.6405850000  MEMB      17              0.0000000000
      2036        17  CHL1      C14            18.2377814192       -3.5846420815       11.0670150000  MEMB      17              0.0000000000
      2037        17  CHL1      H14            18.9405464216       -4.4401841655       11.1591050000  MEMB      17              0.0000000000
      2038        17  CHL1      C15            18.9856647851       -2.4414986228       10.3188350000  MEMB      17              0.0000000000
      2039        17  CHL1      H15A           18.4517301951       -1.4778233581       10.4621950000  MEMB      17              0.0000000000
      2040        17  CHL1      H15B           19.9893918937       -2.2323965163       10.7467850000  MEMB      17              0.0000000000
      2041        17  CHL1      C16            18.8650257140       -2.7739292861        8.8453550000  MEMB      17              0.0000000000
      2042        17  CHL1      H16A           18.4352426708       -1.8664415770        8.3698750000  MEMB      17              0.0000000000
      2043        17  CHL1      H16B           19.8716989392       -2.9011251768        8.3928650000  MEMB      17              0.0000000000
      2044        17  CHL1      C17            17.9211655567       -4.0163568463        8.7635050000  MEMB      17              0.0000000000
      2045        17  CHL1      H17            18.5811120242       -4.9096133265        8.7933250000  MEMB      17              0.0000000000
      2046        17  CHL1      C13            17.1423332772       -4.0202603834       10.0723450000  MEMB      17              0.0000000000
      2047        17  CHL1      C18            16.0464266295       -2.9390857087        9.8575950000  MEMB      17              0.0000000000
      2048        17  CHL1      H18A           15.3326691318       -3.1650166984        9.0367150000  MEMB      17              0.0000000000
      2049        17  CHL1      H18B           15.4535482948       -2.7343414257       10.7745950000  MEMB      17              0.0000000000
      2050        17  CHL1      H18C           16.5088231950       -1.9310174580        9.7919550000  MEMB      17              0.0000000000
      2051        17  CHL1      C12            16.4960752954       -5.2906590373       10.7191150000  MEMB      17              0.0000000000
      2052        17  CHL1      H12A           15.6099368201       -5.6117968784       10.1309350000  MEMB      17              0.0000000000
      2053        17  CHL1      H12B           17.1239479463       -6.1935805102       10.8766450000  MEMB      17              0.0000000000
      2054        17  CHL1      C11            15.9934387700       -4.9094689982       12.1239550000  MEMB      17              0.0000000000
      2055        17  CHL1      H11A           15.2122712820       -4.1233023359       12.2016750000  MEMB      17              0.0000000000
      2056        17  CHL1      H11B           15.4252646302       -5.7280033847       12.6153850000  MEMB      17              0.0000000000
      2057        17  CHL1      C9             17.0231245088       -4.4876334105       13.0980550000  MEMB      17              0.0000000000
      2058        17  CHL1      H9             17.7850173143       -5.2922527993       13.1782150000  MEMB      17              0.0000000000
      2059        17  CHL1      C10            16.4701597985       -4.3026176343       14.5631550000  MEMB      17              0.0000000000
      2060        17  CHL1      C19            15.4072699764       -3.2136724943       14.4968650000  MEMB      17              0.0000000000
      2061        17  CHL1      H19A           15.9514494392       -2.2859026851       14.2185950000  MEMB      17              0.0000000000
      2062        17  CHL1      H19B           14.5340363521       -3.4595926924       13.8555350000  MEMB      17              0.0000000000
      2063        17  CHL1      H19C           14.8420881588       -3.1016243814       15.4467750000  MEMB      17              0.0000000000
      2064        17  CHL1      C1             15.8834775672       -5.6591240605       15.0507550000  MEMB      17              0.0000000000
      2065        17  CHL1      H1A            14.9707689388       -6.0144534308       14.5263250000  MEMB      17              0.0000000000
      2066        17  CHL1      H1B            16.6583758332       -6.4331702503       14.8644350000  MEMB      17              0.0000000000
      2067        17  CHL1      C2             15.4655603033       -5.6661097563       16.5485550000  MEMB      17              0.0000000000
      2068        17  CHL1      H2A            15.0949419048       -6.6721168984       16.8399450000  MEMB      17              0.0000000000
      2069        17  CHL1      H2B            14.6192194006       -4.9764513865       16.7544850000  MEMB      17              0.0000000000
      2070        17  CHL1      C20            17.2508219085       -4.2040366901        7.3505450000  MEMB      17              0.0000000000
      2071        17  CHL1      H20            16.7792136988       -3.2472821853        7.0398750000  MEMB      17              0.0000000000
      2072        17  CHL1      C21            16.2320295454       -5.2858444266        7.2605050000  MEMB      17              0.0000000000
      2073        17  CHL1      H21A           15.8786062008       -5.3687272868        6.2104850000  MEMB      17              0.0000000000
      2074        17  CHL1      H21B           15.2927784319       -4.9875689610        7.7734950000  MEMB      17              0.0000000000
      2075        17  CHL1      H21C           16.5645775630       -6.2855496927        7.6130850000  MEMB      17              0.0000000000
      2076        17  CHL1      C22            18.2866405890       -4.2255818953        6.2589550000  MEMB      17              0.0000000000
      2077        17  CHL1      H22A           18.9154494827       -3.3174880190        6.1394350000  MEMB      17              0.0000000000
      2078        17  CHL1      H22B           19.0097038439       -5.0127635379        6.5620250000  MEMB      17              0.0000000000
      2079        17  CHL1      C23            17.8814219762       -4.4572614903        4.7641650000  MEMB      17              0.0000000000
      2080        17  CHL1      H23A           17.3240999323       -5.4045540416        4.6018550000  MEMB      17              0.0000000000
      2081        17  CHL1      H23B           17.1407889715       -3.6768106714        4.4872350000  MEMB      17              0.0000000000
      2082        17  CHL1      C24            19.0935665398       -4.3988361074        3.8029150000  MEMB      17              0.0000000000
      2083        17  CHL1      H24A           19.5785730243       -3.4055652911        3.9146950000  MEMB      17              0.0000000000
      2084        17  CHL1      H24B           19.8073105418       -5.1692602405        4.1653150000  MEMB      17              0.0000000000
      2085        17  CHL1      C25            18.7542428168       -4.6319351771        2.3635350000  MEMB      17              0.0000000000
      2086        17  CHL1      H25            18.2121048479       -3.7010005091        2.0919050000  MEMB      17              0.0000000000
      2087        17  CHL1      C26            19.9871229140       -4.7170090124        1.4146250000  MEMB      17              0.0000000000
      2088        17  CHL1      H26A           20.6143780961       -3.8019656268        1.4743650000  MEMB      17              0.0000000000
      2089        17  CHL1      H26B           20.6736128007       -5.4919822339        1.8176950000  MEMB      17              0.0000000000
      2090        17  CHL1      H26C           19.6142822683       -4.9974677315        0.4063350000  MEMB      17              0.0000000000
      2091        17  CHL1      C27            17.7780492008       -5.8027135449        1.9565750000  MEMB      17              0.0000000000
      2092        17  CHL1      H27A           16.8678886619       -5.9258224363        2.5816950000  MEMB      17              0.0000000000
      2093        17  CHL1      H27B           17.4367597604       -5.6030701317        0.9183150000  MEMB      17              0.0000000000
      2094        17  CHL1      H27C           18.3321110118       -6.7656492330        1.9470350000  MEMB      17              0.0000000000
      2095        18  OSM       N             -16.6730987235        1.4226793591       22.6615738517  MEMB      18              0.0000000000
      2096        18  OSM       C15           -18.0589647246        1.0089532091       22.5428465500  MEMB      18              0.0000000000
      2097        18  OSM       H15A          -18.1215321924       -0.0107959417       22.1927079801  MEMB      18              0.0000000000
      2098        18  OSM       H15B          -18.5393270598        1.5911094281       21.7703530854  MEMB      18              0.0000000000
      2099        18  OSM       H15C          -18.5533093683        1.2008945854       23.4836875585  MEMB      18              0.0000000000
      2100        18  OSM       C14           -16.6623059523        2.7821938849       23.1759047182  MEMB      18              0.0000000000
      2101        18  OSM       H14A          -16.9036041887        3.5126561218       22.4178808720  MEMB      18              0.0000000000
      2102        18  OSM       H14B          -15.6973674376        3.0133974415       23.6023298411  MEMB      18              0.0000000000
      2103        18  OSM       H14C          -17.5041513134        2.8266946482       23.8509723039  MEMB      18              0.0000000000
      2104        18  OSM       C13           -15.9847687074        0.5515025555       23.7565769921  MEMB      18              0.0000000000
      2105        18  OSM       H13A          -15.8638499905       -0.4739350847       23.4399442186  MEMB      18              0.0000000000
      2106        18  OSM       H13B          -16.6511789459        0.5521841204       24.6064576409  MEMB      18              0.0000000000
      2107        18  OSM       H13C          -15.0596329228        0.9878459222       24.1031721294  MEMB      18              0.0000000000
      2108        18  OSM       C12           -15.8462665736        1.3323837843       21.4026226633  MEMB      18              0.0000000000
      2109        18  OSM       H12A          -14.8539935159        1.7020178039       21.6151434689  MEMB      18              0.0000000000
      2110        18  OSM       H12B          -16.3471095462        2.0167633956       20.7339068709  MEMB      18              0.0000000000
      2111        18  OSM       C11           -15.7361479998       -0.0513442806       20.7430700848  MEMB      18              0.0000000000
      2112        18  OSM       H11A          -15.2744448076       -0.8051273810       21.4160946722  MEMB      18              0.0000000000
      2113        18  OSM       H11B          -15.1571836605        0.2062765654       19.8305171903  MEMB      18              0.0000000000
      2114        18  OSM       P             -17.1375392440       -1.7278476920       19.3658569156  MEMB      18              0.0000000000
      2115        18  OSM       O13           -15.8284888066       -2.4627205827       19.2909698932  MEMB      18              0.0000000000
      2116        18  OSM       O14           -18.3850503521       -2.3925705152       19.7343153814  MEMB      18              0.0000000000
      2117        18  OSM       O11           -17.4698334300       -0.9661309567       17.9850509987  MEMB      18              0.0000000000
      2118        18  OSM       O12           -17.0208112840       -0.4758148281       20.3412119548  MEMB      18              0.0000000000
      2119        18  OSM       C1S           -18.5040584472        0.0444191433       18.0264886078  MEMB      18              0.0000000000
      2120        18  OSM       H1S           -18.1336165824        0.7868744086       18.7653078498  MEMB      18              0.0000000000
      2121        18  OSM       H1T           -19.4164347172       -0.5026367016       18.3468327278  MEMB      18              0.0000000000
      2122        18  OSM       NF            -19.2196991487       -0.2149368780       15.7239703221  MEMB      18              0.0000000000
      2123        18  OSM       HNF           -18.6065558087       -0.7369219851       15.1360965043  MEMB      18              0.0000000000
      2124        18  OSM       C2S           -18.7904116654        0.7939234314       16.7050083725  MEMB      18              0.0000000000
      2125        18  OSM       H2S           -19.5989407944        1.5457995831       16.8286349846  MEMB      18              0.0000000000
      2126        18  OSM       C3S           -17.5048646274        1.4632923841       16.2446982905  MEMB      18              0.0000000000
      2127        18  OSM       H3S           -16.7431936389        0.6894380364       16.0094797866  MEMB      18              0.0000000000
      2128        18  OSM       O3            -16.9188939467        2.3062723694       17.2765246696  MEMB      18              0.0000000000
      2129        18  OSM       HO3           -17.2487286767        1.8713933578       18.0662646680  MEMB      18              0.0000000000
      2130        18  OSM       C4S           -17.8102355646        2.3324958327       15.0571828335  MEMB      18              0.0000000000
      2131        18  OSM       H4S           -18.3757491918        3.2663835277       15.1915261648  MEMB      18              0.0000000000
      2132        18  OSM       C5S           -17.4575618730        2.0385915722       13.8123286821  MEMB      18              0.0000000000
      2133        18  OSM       H5S           -16.9304640307        1.0881686750       13.6424335049  MEMB      18              0.0000000000
      2134        18  OSM       C6S           -17.7162883418        2.8052559403       12.5781865161  MEMB      18              0.0000000000
      2135        18  OSM       H6S           -16.8988071890        2.7682354961       11.8267381077  MEMB      18              0.0000000000
      2136        18  OSM       H6T           -17.9601383115        3.8660189749       12.8009880902  MEMB      18              0.0000000000
      2137        18  OSM       C7S           -18.9498782481        2.1274384307       11.8771565644  MEMB      18              0.0000000000
      2138        18  OSM       H7S           -19.9179102469        2.1730609012       12.4204375982  MEMB      18              0.0000000000
      2139        18  OSM       H7T           -18.7577458829        1.0455302596       11.7132030904  MEMB      18              0.0000000000
      2140        18  OSM       C8S           -19.1719168024        2.7809202772       10.4785493332  MEMB      18              0.0000000000
      2141        18  OSM       H8S           -18.2659609578        2.6360930976        9.8519787275  MEMB      18              0.0000000000
      2142        18  OSM       H8T           -19.3211622050        3.8728924901       10.6187047625  MEMB      18              0.0000000000
      2143        18  OSM       C9S           -20.4860958777        2.2474183863        9.7688698202  MEMB      18              0.0000000000
      2144        18  OSM       H9S           -21.3018685651        2.4472689643       10.4961222477  MEMB      18              0.0000000000
      2145        18  OSM       H9T           -20.2618679542        1.1593462233        9.7807809349  MEMB      18              0.0000000000
      2146        18  OSM       C10S          -20.6294617444        2.6810678924        8.2468112359  MEMB      18              0.0000000000
      2147        18  OSM       H10S          -20.7453278607        3.7859967342        8.2414630346  MEMB      18              0.0000000000
      2148        18  OSM       H10T          -21.4982316278        2.1668750468        7.7829512347  MEMB      18              0.0000000000
      2149        18  OSM       C11S          -19.4002065352        2.4640220381        7.3744706591  MEMB      18              0.0000000000
      2150        18  OSM       H11S          -19.0860911558        1.4055074351        7.4977546721  MEMB      18              0.0000000000
      2151        18  OSM       H11T          -18.5669984597        3.0365319987        7.8352497926  MEMB      18              0.0000000000
      2152        18  OSM       C12S          -19.6443299523        2.7804411651        5.9438507259  MEMB      18              0.0000000000
      2153        18  OSM       H12S          -18.6492504291        2.5023663526        5.5354243296  MEMB      18              0.0000000000
      2154        18  OSM       H12T          -19.8239943775        3.8519963876        5.7118776890  MEMB      18              0.0000000000
      2155        18  OSM       C13S          -20.6155630591        1.8917360474        5.1707575967  MEMB      18              0.0000000000
      2156        18  OSM       H13S          -21.5252268899        2.5216545630        5.2709302976  MEMB      18              0.0000000000
      2157        18  OSM       H13T          -20.6715541115        0.8980608358        5.6645137571  MEMB      18              0.0000000000
      2158        18  OSM       C14S          -20.3858511008        1.8473842300        3.6836120193  MEMB      18              0.0000000000
      2159        18  OSM       H14S          -20.1243277047        2.8560977499        3.2983531096  MEMB      18              0.0000000000
      2160        18  OSM       H14T          -21.3076852657        1.6008340341        3.1146166122  MEMB      18              0.0000000000
      2161        18  OSM       C15S          -19.2199877309        0.9530594822        3.3004273142  MEMB      18              0.0000000000
      2162        18  OSM       H15S          -19.5304082386       -0.1001016053        3.4701684427  MEMB      18              0.0000000000
      2163        18  OSM       H15T          -18.2886972614        1.2615647830        3.8218134539  MEMB      18              0.0000000000
      2164        18  OSM       C16S          -19.0856325409        0.9668758842        1.7383984807  MEMB      18              0.0000000000
      2165        18  OSM       H16S          -18.9177701775        2.0410639279        1.5097884448  MEMB      18              0.0000000000
      2166        18  OSM       H16T          -19.9432302791        0.5570768282        1.1631498043  MEMB      18              0.0000000000
      2167        18  OSM       C17S          -17.8053446763        0.3535788340        1.2486418738  MEMB      18              0.0000000000
      2168        18  OSM       H17S          -17.8743711945       -0.7518342836        1.3359216413  MEMB      18              0.0000000000
      2169        18  OSM       H17T          -16.9486730902        0.6427906245        1.8942342333  MEMB      18              0.0000000000
      2170        18  OSM       C18S          -17.4901149968        0.7076807439       -0.2456889520  MEMB      18              0.0000000000
      2171        18  OSM       H18S          -16.4623972173        0.4063905933       -0.5412250616  MEMB      18              0.0000000000
      2172        18  OSM       H18T          -17.5515718688        1.8008905663       -0.4339349490  MEMB      18              0.0000000000
      2173        18  OSM       H18U          -18.2135480671        0.2873977456       -0.9766655213  MEMB      18              0.0000000000
      2174        18  OSM       C1F           -20.5363525384       -0.5740268111       15.6736877808  MEMB      18              0.0000000000
      2175        18  OSM       OF            -21.3673575287       -0.1169028743       16.4682237866  MEMB      18              0.0000000000
      2176        18  OSM       C2F           -20.8924037809       -1.5155209724       14.5402860159  MEMB      18              0.0000000000
      2177        18  OSM       H2F           -21.5572977038       -1.0080996417       13.8090128983  MEMB      18              0.0000000000
      2178        18  OSM       H2G           -21.5142570581       -2.3583231932       14.9108312694  MEMB      18              0.0000000000
      2179        18  OSM       C3F           -19.6303341996       -2.1046579530       13.8271323545  MEMB      18              0.0000000000
      2180        18  OSM       H3F           -19.1336759410       -2.6334129889       14.6686012471  MEMB      18              0.0000000000
      2181        18  OSM       H3G           -18.9442244220       -1.3215217494       13.4394829238  MEMB      18              0.0000000000
      2182        18  OSM       C4F           -19.8390983054       -3.3058259394       12.8909919466  MEMB      18              0.0000000000
      2183        18  OSM       H4F           -20.4357476962       -2.9206405864       12.0366137537  MEMB      18              0.0000000000
      2184        18  OSM       H4G           -20.3321938556       -4.1836079916       13.3607538257  MEMB      18              0.0000000000
      2185        18  OSM       C5F           -18.5345669901       -3.6633838807       12.1978341359  MEMB      18              0.0000000000
      2186        18  OSM       H5F           -18.7559143651       -4.4045829013       11.4003693894  MEMB      18              0.0000000000
      2187        18  OSM       H5G           -17.9215174000       -4.1779171566       12.9683838662  MEMB      18              0.0000000000
      2188        18  OSM       C6F           -17.6636001938       -2.5578062912       11.5287988690  MEMB      18              0.0000000000
      2189        18  OSM       H6F           -16.7631940303       -3.0284483489       11.0792595744  MEMB      18              0.0000000000
      2190        18  OSM       H6G           -17.3617701041       -1.6753279693       12.1324972698  MEMB      18              0.0000000000
      2191        18  OSM       C7F           -18.4517434222       -1.8633192421       10.3275058481  MEMB      18              0.0000000000
      2192        18  OSM       H7F           -19.1635106293       -1.2105600179       10.8766994778  MEMB      18              0.0000000000
      2193        18  OSM       H7G           -19.0906090557       -2.5866014123        9.7770197387  MEMB      18              0.0000000000
      2194        18  OSM       C8F           -17.6539759588       -0.8622068890        9.3988308683  MEMB      18              0.0000000000
      2195        18  OSM       H8F           -17.3247691456        0.0189977536        9.9899504681  MEMB      18              0.0000000000
      2196        18  OSM       H8G           -18.4005972979       -0.4151291869        8.7081790631  MEMB      18              0.0000000000
      2197        18  OSM       C9F           -16.4569765499       -1.4765700407        8.6959040470  MEMB      18              0.0000000000
      2198        18  OSM       H9F           -15.4497998954       -1.4012887931        9.1317110225  MEMB      18              0.0000000000
      2199        18  OSM       C10F          -16.4280011067       -2.2209019270        7.5599187816  MEMB      18              0.0000000000
      2200        18  OSM       H10F          -15.4456337515       -2.5670937146        7.2062159215  MEMB      18              0.0000000000
      2201        18  OSM       C11F          -17.6102995470       -2.6107950513        6.7237284492  MEMB      18              0.0000000000
      2202        18  OSM       H11F          -18.5608585953       -2.7740408990        7.2751897448  MEMB      18              0.0000000000
      2203        18  OSM       H11G          -17.2463330059       -3.5823971763        6.3264386201  MEMB      18              0.0000000000
      2204        18  OSM       C12F          -18.0179694626       -1.6025716075        5.5970022157  MEMB      18              0.0000000000
      2205        18  OSM       H12F          -18.2518140922       -0.6247887504        6.0698429632  MEMB      18              0.0000000000
      2206        18  OSM       H12G          -18.8938546351       -1.9434988068        5.0046213272  MEMB      18              0.0000000000
      2207        18  OSM       C13F          -16.9114574457       -1.3570189974        4.5553827974  MEMB      18              0.0000000000
      2208        18  OSM       H13F          -17.4803752742       -0.8923232640        3.7218886149  MEMB      18              0.0000000000
      2209        18  OSM       H13G          -16.6550578122       -2.3635708789        4.1611320804  MEMB      18              0.0000000000
      2210        18  OSM       C14F          -15.6976943987       -0.5563357433        5.0028623682  MEMB      18              0.0000000000
      2211        18  OSM       H14F          -14.9167262074       -1.0784757849        5.5959722793  MEMB      18              0.0000000000
      2212        18  OSM       H14G          -16.0919870214        0.2917232020        5.6025710219  MEMB      18              0.0000000000
      2213        18  OSM       C15F          -14.9017417587        0.1451983409        3.8113118675  MEMB      18              0.0000000000
      2214        18  OSM       H15F          -13.9958463625        0.5938956619        4.2721221420  MEMB      18              0.0000000000
      2215        18  OSM       H15G          -15.4288904261        0.9677488432        3.2823085504  MEMB      18              0.0000000000
      2216        18  OSM       C16F          -14.4140483582       -0.8596302976        2.7336782941  MEMB      18              0.0000000000
      2217        18  OSM       H16F          -15.2644787939       -1.1130649181        2.0652027544  MEMB      18              0.0000000000
      2218        18  OSM       H16G          -14.0165680742       -1.8201982796        3.1256466794  MEMB      18              0.0000000000
      2219        18  OSM       C17F          -13.4779213716       -0.1492132731        1.6861625873  MEMB      18              0.0000000000
      2220        18  OSM       H17F          -12.5531728405        0.2247185660        2.1753817730  MEMB      18              0.0000000000
      2221        18  OSM       H17G          -14.0114623679        0.7743245623        1.3751432807  MEMB      18              0.0000000000
      2222        18  OSM       C18F          -13.0360939032       -1.0691330292        0.5189000552  MEMB      18              0.0000000000
      2223        18  OSM       H18F          -12.8017258970       -2.0228306771        1.0383737622  MEMB      18              0.0000000000
      2224        18  OSM       H18G          -12.1662709412       -0.6026913105        0.0088390032  MEMB      18              0.0000000000
      2225        18  OSM       H18H          -13.8548201570       -1.2750809740       -0.2033155251  MEMB      18              0.0000000000
      2226        19  SLPC      N              -0.7603156670      -18.2959711522       15.1529466261  MEMB      19              0.0000000000
      2227        19  SLPC      C13            -0.3881166223      -19.5277430958       15.9419979066  MEMB      19              0.0000000000
      2228        19  SLPC      H13A            0.6578243518      -19.7601800339       15.8064241079  MEMB      19              0.0000000000
      2229        19  SLPC      H13B           -0.5451476803      -19.3105892217       16.9882223492  MEMB      19              0.0000000000
      2230        19  SLPC      H13C           -1.0662244384      -20.2740742289       15.5552689114  MEMB      19              0.0000000000
      2231        19  SLPC      C14            -0.7113514340      -18.7990982687       13.7336605272  MEMB      19              0.0000000000
      2232        19  SLPC      H14A           -1.2978704809      -19.6985283106       13.6178112482  MEMB      19              0.0000000000
      2233        19  SLPC      H14B           -1.0097051720      -18.0681073933       12.9967498463  MEMB      19              0.0000000000
      2234        19  SLPC      H14C            0.3102761251      -19.1003352092       13.5549618731  MEMB      19              0.0000000000
      2235        19  SLPC      C15             0.2276087464      -17.2038685416       15.2809973136  MEMB      19              0.0000000000
      2236        19  SLPC      H15A            0.0639582015      -16.4183384412       14.5581134932  MEMB      19              0.0000000000
      2237        19  SLPC      H15B            0.1681531773      -16.8867384526       16.3116735842  MEMB      19              0.0000000000
      2238        19  SLPC      H15C            1.2310438611      -17.5271228816       15.0464238130  MEMB      19              0.0000000000
      2239        19  SLPC      C12            -2.1602366101      -17.8804032582       15.4449492576  MEMB      19              0.0000000000
      2240        19  SLPC      H12A           -2.8850192515      -18.5827693803       15.0605380268  MEMB      19              0.0000000000
      2241        19  SLPC      H12B           -2.3669385010      -16.9821001649       14.8821652683  MEMB      19              0.0000000000
      2242        19  SLPC      C11            -2.6231405623      -17.7325541248       16.8795529392  MEMB      19              0.0000000000
      2243        19  SLPC      H11A           -2.7456987934      -18.7463958664       17.3170748348  MEMB      19              0.0000000000
      2244        19  SLPC      H11B           -3.6378257208      -17.2881249507       16.7945962553  MEMB      19              0.0000000000
      2245        19  SLPC      P              -2.3087214062      -16.2337361091       19.0262911960  MEMB      19              0.0000000000
      2246        19  SLPC      O13            -3.1469406337      -17.1569508747       19.8486685933  MEMB      19              0.0000000000
      2247        19  SLPC      O14            -1.2215373151      -15.4975158841       19.7844255032  MEMB      19              0.0000000000
      2248        19  SLPC      O12            -1.7243681868      -16.9440036133       17.7288535790  MEMB      19              0.0000000000
      2249        19  SLPC      O11            -3.2278097599      -15.2128868572       18.1776565263  MEMB      19              0.0000000000
      2250        19  SLPC      C1             -2.6194902850      -14.3611144900       17.2462557717  MEMB      19              0.0000000000
      2251        19  SLPC      HA             -1.8119492679      -13.6951242859       17.6186202734  MEMB      19              0.0000000000
      2252        19  SLPC      HB             -2.0772545866      -14.9433821152       16.4708423903  MEMB      19              0.0000000000
      2253        19  SLPC      C2             -3.6545751523      -13.7167262670       16.2665796483  MEMB      19              0.0000000000
      2254        19  SLPC      HS             -4.4282134269      -13.2382844939       16.9044652559  MEMB      19              0.0000000000
      2255        19  SLPC      O21            -4.2298633486      -14.7572676816       15.4642890518  MEMB      19              0.0000000000
      2256        19  SLPC      C21            -5.5476717924      -14.8041110060       15.3415100761  MEMB      19              0.0000000000
      2257        19  SLPC      O22            -6.4505980538      -14.0197832249       15.6603539630  MEMB      19              0.0000000000
      2258        19  SLPC      C22            -5.8020100224      -16.2022171127       14.7472941577  MEMB      19              0.0000000000
      2259        19  SLPC      H2R            -5.3745264345      -16.9541751333       15.4445301159  MEMB      19              0.0000000000
      2260        19  SLPC      H2S            -6.8693801318      -16.4828343402       14.8749513964  MEMB      19              0.0000000000
      2261        19  SLPC      C3             -2.9123551587      -12.6362069720       15.3812242353  MEMB      19              0.0000000000
      2262        19  SLPC      HX             -2.7039759959      -11.6733288336       15.8948043092  MEMB      19              0.0000000000
      2263        19  SLPC      HY             -3.7462301911      -12.3475699564       14.7061966854  MEMB      19              0.0000000000
      2264        19  SLPC      O31            -1.7233523577      -13.0468162995       14.6228618987  MEMB      19              0.0000000000
      2265        19  SLPC      C31            -1.5888171611      -12.6266622319       13.4067884028  MEMB      19              0.0000000000
      2266        19  SLPC      O32            -2.4716225539      -11.9098452760       12.7615641587  MEMB      19              0.0000000000
      2267        19  SLPC      C32            -0.2593956426      -13.0525014010       12.7857146007  MEMB      19              0.0000000000
      2268        19  SLPC      H2X             0.5341877732      -13.2006624438       13.5489936140  MEMB      19              0.0000000000
      2269        19  SLPC      H2Y             0.0099894668      -12.2201791025       12.1008846920  MEMB      19              0.0000000000
      2270        19  SLPC      C23            -5.3403140220      -16.3437576434       13.2647462650  MEMB      19              0.0000000000
      2271        19  SLPC      H3R            -5.8328019396      -17.3021429919       12.9940540880  MEMB      19              0.0000000000
      2272        19  SLPC      H3S            -4.2412953104      -16.4420013338       13.1350273987  MEMB      19              0.0000000000
      2273        19  SLPC      C24            -5.8665089970      -15.1814537436       12.3573440819  MEMB      19              0.0000000000
      2274        19  SLPC      H4R            -5.4164823224      -14.2106468589       12.6562268972  MEMB      19              0.0000000000
      2275        19  SLPC      H4S            -6.9743958038      -15.1679134469       12.2753432382  MEMB      19              0.0000000000
      2276        19  SLPC      C25            -5.3631156614      -15.3250067088       10.9005131084  MEMB      19              0.0000000000
      2277        19  SLPC      H5R            -6.2391865283      -15.2999615315       10.2177297253  MEMB      19              0.0000000000
      2278        19  SLPC      H5S            -4.9349597513      -16.3386666575       10.7472259410  MEMB      19              0.0000000000
      2279        19  SLPC      C26            -4.3145271239      -14.3401433333       10.5478040457  MEMB      19              0.0000000000
      2280        19  SLPC      H6R            -3.3519622530      -14.5820010084       11.0470981795  MEMB      19              0.0000000000
      2281        19  SLPC      H6S            -4.6352525054      -13.3323327154       10.8880597320  MEMB      19              0.0000000000
      2282        19  SLPC      C27            -4.1805207500      -14.1585133026        8.9886465846  MEMB      19              0.0000000000
      2283        19  SLPC      H7R            -5.0693789994      -13.6010123871        8.6233452504  MEMB      19              0.0000000000
      2284        19  SLPC      H7S            -4.1014265116      -15.1234187328        8.4436483120  MEMB      19              0.0000000000
      2285        19  SLPC      C28            -2.9470884956      -13.3664299020        8.6348684007  MEMB      19              0.0000000000
      2286        19  SLPC      H8R            -1.9877505332      -13.7886704836        9.0032494945  MEMB      19              0.0000000000
      2287        19  SLPC      H8S            -3.0019317518      -12.4340878654        9.2365749631  MEMB      19              0.0000000000
      2288        19  SLPC      C29            -2.8456133729      -12.9967599390        7.1555473191  MEMB      19              0.0000000000
      2289        19  SLPC      H9R            -3.6970330562      -12.3344282289        6.9401369048  MEMB      19              0.0000000000
      2290        19  SLPC      C210           -1.9270240924      -13.3512001567        6.2078664374  MEMB      19              0.0000000000
      2291        19  SLPC      H10R           -2.0974109923      -12.9483895688        5.1985538987  MEMB      19              0.0000000000
      2292        19  SLPC      C211           -0.7376737877      -14.2649183117        6.4076372017  MEMB      19              0.0000000000
      2293        19  SLPC      H11R           -1.0351220918      -15.2575048321        6.0068661371  MEMB      19              0.0000000000
      2294        19  SLPC      H11S           -0.4241808522      -14.3764391358        7.4676397848  MEMB      19              0.0000000000
      2295        19  SLPC      C212            0.5509136824      -13.9520427297        5.5796352382  MEMB      19              0.0000000000
      2296        19  SLPC      H12R            1.4062764646      -13.5628974269        6.1514045690  MEMB      19              0.0000000000
      2297        19  SLPC      C213            0.7026840148      -14.1568466172        4.3042732384  MEMB      19              0.0000000000
      2298        19  SLPC      H13R            1.6303793252      -13.7806609608        3.8483499596  MEMB      19              0.0000000000
      2299        19  SLPC      C214           -0.2070266150      -14.6984327085        3.2908051864  MEMB      19              0.0000000000
      2300        19  SLPC      H14R           -0.1445990683      -13.9349296636        2.4861393977  MEMB      19              0.0000000000
      2301        19  SLPC      H14S           -1.2417377519      -14.7146959711        3.6950693797  MEMB      19              0.0000000000
      2302        19  SLPC      C215            0.0193076990      -16.0722397274        2.7762333948  MEMB      19              0.0000000000
      2303        19  SLPC      H15R           -0.2625474397      -16.7445822818        3.6145846728  MEMB      19              0.0000000000
      2304        19  SLPC      H15S            1.0771029896      -16.3416589582        2.5693436346  MEMB      19              0.0000000000
      2305        19  SLPC      C216           -0.8947045508      -16.4401209075        1.5531811378  MEMB      19              0.0000000000
      2306        19  SLPC      H16R           -1.9638016818      -16.3568734642        1.8437365612  MEMB      19              0.0000000000
      2307        19  SLPC      H16S           -0.7171176145      -17.5216404821        1.3712497500  MEMB      19              0.0000000000
      2308        19  SLPC      C217           -0.6178153276      -15.5775007805        0.2854119967  MEMB      19              0.0000000000
      2309        19  SLPC      H17R            0.4611107225      -15.6585489816        0.0330811680  MEMB      19              0.0000000000
      2310        19  SLPC      H17S           -0.8252174714      -14.5291643109        0.5892147861  MEMB      19              0.0000000000
      2311        19  SLPC      C218           -1.5667922376      -15.9229924027       -0.8844740329  MEMB      19              0.0000000000
      2312        19  SLPC      H18R           -2.6037257776      -15.5478951644       -0.7488576944  MEMB      19              0.0000000000
      2313        19  SLPC      H18S           -1.4358563001      -16.9427534516       -1.3055013464  MEMB      19              0.0000000000
      2314        19  SLPC      H18T           -1.2759197537      -15.2130108021       -1.6879916177  MEMB      19              0.0000000000
      2315        19  SLPC      C33            -0.3480878463      -14.1784275897       11.7554818135  MEMB      19              0.0000000000
      2316        19  SLPC      H3X            -1.0267665637      -13.8874524879       10.9253912265  MEMB      19              0.0000000000
      2317        19  SLPC      H3Y            -0.7654537727      -15.1095878659       12.1948756632  MEMB      19              0.0000000000
      2318        19  SLPC      C34             1.1967015853      -14.5160089521       11.4308868924  MEMB      19              0.0000000000
      2319        19  SLPC      H4X             1.6471823715      -14.9626964000       12.3429493039  MEMB      19              0.0000000000
      2320        19  SLPC      H4Y             1.7044694063      -13.5465764379       11.2393310239  MEMB      19              0.0000000000
      2321        19  SLPC      C35             1.3551329913      -15.4176270283       10.2309088706  MEMB      19              0.0000000000
      2322        19  SLPC      H5X             2.4078131467      -15.7402090112       10.0821590896  MEMB      19              0.0000000000
      2323        19  SLPC      H5Y             0.8949711232      -14.8034792011        9.4275441235  MEMB      19              0.0000000000
      2324        19  SLPC      C36             0.5013025806      -16.6709542922       10.2838495889  MEMB      19              0.0000000000
      2325        19  SLPC      H6X            -0.5952786565      -16.4992106282       10.3321672135  MEMB      19              0.0000000000
      2326        19  SLPC      H6Y             0.7582700660      -17.1249505134       11.2647553129  MEMB      19              0.0000000000
      2327        19  SLPC      C37             0.7788013677      -17.7336904663        9.2310323937  MEMB      19              0.0000000000
      2328        19  SLPC      H7X             1.7674925600      -18.1823125696        9.4667209557  MEMB      19              0.0000000000
      2329        19  SLPC      H7Y             0.9221092819      -17.2609267411        8.2359050321  MEMB      19              0.0000000000
      2330        19  SLPC      C38            -0.3047558013      -18.7594677826        9.0838463997  MEMB      19              0.0000000000
      2331        19  SLPC      H8X            -1.3427969517      -18.4590570928        9.3418093319  MEMB      19              0.0000000000
      2332        19  SLPC      H8Y            -0.0808395383      -19.5768736591        9.8021990197  MEMB      19              0.0000000000
      2333        19  SLPC      C39            -0.3801860762      -19.4129616131        7.6540823305  MEMB      19              0.0000000000
      2334        19  SLPC      H9X            -0.8278952846      -20.4071840462        7.8671533799  MEMB      19              0.0000000000
      2335        19  SLPC      H9Y             0.5936992888      -19.4913261798        7.1251899596  MEMB      19              0.0000000000
      2336        19  SLPC      C310           -1.3119742439      -18.6919008918        6.7099440960  MEMB      19              0.0000000000
      2337        19  SLPC      H10X           -1.1076707493      -19.1135532626        5.7025760534  MEMB      19              0.0000000000
      2338        19  SLPC      H10Y           -1.0101299556      -17.6271094899        6.6128360464  MEMB      19              0.0000000000
      2339        19  SLPC      C311           -2.7961640192      -18.7330982059        6.9728897719  MEMB      19              0.0000000000
      2340        19  SLPC      H11X           -3.0311925191      -18.2101113555        7.9245026971  MEMB      19              0.0000000000
      2341        19  SLPC      H11Y           -3.1031642779      -19.7599144415        7.2656696665  MEMB      19              0.0000000000
      2342        19  SLPC      C312           -3.6698211852      -18.1749165604        5.7990405447  MEMB      19              0.0000000000
      2343        19  SLPC      H12X           -3.9833807303      -18.9678302714        5.0867975980  MEMB      19              0.0000000000
      2344        19  SLPC      H12Y           -3.1019394177      -17.5046294274        5.1189320803  MEMB      19              0.0000000000
      2345        19  SLPC      C313           -4.9134210870      -17.4488632813        6.3272934091  MEMB      19              0.0000000000
      2346        19  SLPC      H13X           -4.6503439687      -16.7212899807        7.1246312990  MEMB      19              0.0000000000
      2347        19  SLPC      H13Y           -5.5116745664      -18.2080839486        6.8750136876  MEMB      19              0.0000000000
      2348        19  SLPC      C314           -5.8383297851      -16.9052663771        5.1880136094  MEMB      19              0.0000000000
      2349        19  SLPC      H14X           -6.8516642456      -16.7417516896        5.6131455442  MEMB      19              0.0000000000
      2350        19  SLPC      H14Y           -5.9844032372      -17.6903652268        4.4156126066  MEMB      19              0.0000000000
      2351        19  SLPC      C315           -5.3420710500      -15.6206166591        4.5092662765  MEMB      19              0.0000000000
      2352        19  SLPC      H15X           -4.2757371610      -15.6107797453        4.1975671694  MEMB      19              0.0000000000
      2353        19  SLPC      H15Y           -5.5190007955      -14.8157865647        5.2544273830  MEMB      19              0.0000000000
      2354        19  SLPC      C316           -6.1345619544      -15.3329286166        3.2176941879  MEMB      19              0.0000000000
      2355        19  SLPC      H16X           -7.1782452128      -15.4981798442        3.5608246200  MEMB      19              0.0000000000
      2356        19  SLPC      H16Y           -5.8284785300      -16.0909932173        2.4653837215  MEMB      19              0.0000000000
      2357        19  SLPC      C317           -5.7154677815      -13.9354061747        2.7431588894  MEMB      19              0.0000000000
      2358        19  SLPC      H17X           -4.6788130264      -13.8630883887        2.3501730690  MEMB      19              0.0000000000
      2359        19  SLPC      H17Y           -5.8368393051      -13.1381104178        3.5072985659  MEMB      19              0.0000000000
      2360        19  SLPC      C318           -6.6132622493      -13.6298696356        1.5070566100  MEMB      19              0.0000000000
      2361        19  SLPC      H18X           -6.3204771769      -12.7134631989        0.9513615585  MEMB      19              0.0000000000
      2362        19  SLPC      H18Y           -7.6477522750      -13.6374341565        1.9121418404  MEMB      19              0.0000000000
      2363        19  SLPC      H18Z           -6.5249249821      -14.4548580406        0.7681989608  MEMB      19              0.0000000000
      2364        20  CHL1      C3             18.2756596582        3.1755471989       17.3287950000  MEMB      20              0.0000000000
      2365        20  CHL1      H3             17.4700299730        2.6548054007       16.7683450000  MEMB      20              0.0000000000
      2366        20  CHL1      O3             17.9409533296        2.8892630904       18.6712050000  MEMB      20              0.0000000000
      2367        20  CHL1      H3'            17.7100580799        1.9595719382       18.7341750000  MEMB      20              0.0000000000
      2368        20  CHL1      C4             19.7122489438        2.7217700053       17.0022050000  MEMB      20              0.0000000000
      2369        20  CHL1      H4A            20.5228456414        3.4074013762       17.3295850000  MEMB      20              0.0000000000
      2370        20  CHL1      H4B            19.8966753385        1.7414950193       17.4914450000  MEMB      20              0.0000000000
      2371        20  CHL1      C5             19.9083515452        2.7201391948       15.5099250000  MEMB      20              0.0000000000
      2372        20  CHL1      C6             20.0703587568        1.5818804842       14.8355750000  MEMB      20              0.0000000000
      2373        20  CHL1      H6             20.1203558841        0.6323114267       15.3885750000  MEMB      20              0.0000000000
      2374        20  CHL1      C7             20.4110326014        1.4974090761       13.3526250000  MEMB      20              0.0000000000
      2375        20  CHL1      H7A            21.4162014127        1.0351728991       13.2510750000  MEMB      20              0.0000000000
      2376        20  CHL1      H7B            19.7234399555        0.7899784284       12.8416550000  MEMB      20              0.0000000000
      2377        20  CHL1      C8             20.4939416763        2.9214290716       12.7526150000  MEMB      20              0.0000000000
      2378        20  CHL1      H8             21.5326155276        3.3075740588       12.8325050000  MEMB      20              0.0000000000
      2379        20  CHL1      C14            20.1838913614        2.7610027062       11.2911050000  MEMB      20              0.0000000000
      2380        20  CHL1      H14            19.1353895806        2.4650286850       11.0734950000  MEMB      20              0.0000000000
      2381        20  CHL1      C15            20.9808427560        1.7105447470       10.5038150000  MEMB      20              0.0000000000
      2382        20  CHL1      H15A           22.0279340814        1.6415171404       10.8687350000  MEMB      20              0.0000000000
      2383        20  CHL1      H15B           20.5457618560        0.6897332559       10.5583850000  MEMB      20              0.0000000000
      2384        20  CHL1      C16            20.7592730860        2.1595377081        9.0411250000  MEMB      20              0.0000000000
      2385        20  CHL1      H16A           21.7235764821        2.3593578942        8.5268150000  MEMB      20              0.0000000000
      2386        20  CHL1      H16B           20.0321015583        1.5072167865        8.5119550000  MEMB      20              0.0000000000
      2387        20  CHL1      C17            19.9635096819        3.4779780175        9.0070450000  MEMB      20              0.0000000000
      2388        20  CHL1      H17            18.9001861660        3.1624488674        8.9428950000  MEMB      20              0.0000000000
      2389        20  CHL1      C13            20.2947862126        4.0627324286       10.4536350000  MEMB      20              0.0000000000
      2390        20  CHL1      C18            21.7658328659        4.5611947044       10.3974750000  MEMB      20              0.0000000000
      2391        20  CHL1      H18A           22.0866877054        4.8057335348       11.4326450000  MEMB      20              0.0000000000
      2392        20  CHL1      H18B           22.5606049415        3.9507514394        9.9178550000  MEMB      20              0.0000000000
      2393        20  CHL1      H18C           21.7960806464        5.4016471322        9.6714950000  MEMB      20              0.0000000000
      2394        20  CHL1      C12            19.2983468572        5.0768788967       11.1296450000  MEMB      20              0.0000000000
      2395        20  CHL1      H12A           19.4412401046        6.0949242996       10.7083450000  MEMB      20              0.0000000000
      2396        20  CHL1      H12B           18.2345819072        4.8416400899       10.9119750000  MEMB      20              0.0000000000
      2397        20  CHL1      C11            19.5123098569        5.2382187019       12.5781150000  MEMB      20              0.0000000000
      2398        20  CHL1      H11A           20.5278364058        5.6888167176       12.5757850000  MEMB      20              0.0000000000
      2399        20  CHL1      H11B           18.8005763209        5.9951156604       12.9716350000  MEMB      20              0.0000000000
      2400        20  CHL1      C9             19.4922654349        3.9548954654       13.3522850000  MEMB      20              0.0000000000
      2401        20  CHL1      H9             18.4944074700        3.4721124014       13.2778750000  MEMB      20              0.0000000000
      2402        20  CHL1      C10            19.6653273288        4.1118254023       14.8986250000  MEMB      20              0.0000000000
      2403        20  CHL1      C19            20.8344508824        4.9763727967       15.2509350000  MEMB      20              0.0000000000
      2404        20  CHL1      H19A           21.7326240457        4.4235858720       14.9016250000  MEMB      20              0.0000000000
      2405        20  CHL1      H19B           20.8825061577        5.9322819537       14.6868050000  MEMB      20              0.0000000000
      2406        20  CHL1      H19C           20.9600930324        5.2097619932       16.3298550000  MEMB      20              0.0000000000
      2407        20  CHL1      C1             18.3488332324        4.7432629235       15.4586250000  MEMB      20              0.0000000000
      2408        20  CHL1      H1A            18.3827594607        5.8013534415       15.1215550000  MEMB      20              0.0000000000
      2409        20  CHL1      H1B            17.5298692024        4.1929627484       14.9479650000  MEMB      20              0.0000000000
      2410        20  CHL1      C2             18.1529644126        4.6217580107       16.9642350000  MEMB      20              0.0000000000
      2411        20  CHL1      H2A            17.1118261230        4.9668943964       17.1409850000  MEMB      20              0.0000000000
      2412        20  CHL1      H2B            18.9326296948        5.2885654170       17.3906250000  MEMB      20              0.0000000000
      2413        20  CHL1      C20            20.1231444877        4.3390589253        7.7504650000  MEMB      20              0.0000000000
      2414        20  CHL1      H20            21.1783232057        4.6830945373        7.6999250000  MEMB      20              0.0000000000
      2415        20  CHL1      C21            19.3042464924        5.6586080580        7.7984650000  MEMB      20              0.0000000000
      2416        20  CHL1      H21A           18.4238555897        5.5844403827        7.1248750000  MEMB      20              0.0000000000
      2417        20  CHL1      H21B           19.8921914962        6.5699443544        7.5574350000  MEMB      20              0.0000000000
      2418        20  CHL1      H21C           18.9486924257        5.8862948403        8.8261050000  MEMB      20              0.0000000000
      2419        20  CHL1      C22            20.0296350816        3.6860076373        6.3853950000  MEMB      20              0.0000000000
      2420        20  CHL1      H22A           20.5981292167        2.7320576524        6.4187250000  MEMB      20              0.0000000000
      2421        20  CHL1      H22B           18.9704230057        3.4420216117        6.1554850000  MEMB      20              0.0000000000
      2422        20  CHL1      C23            20.6565448542        4.5775494346        5.1973950000  MEMB      20              0.0000000000
      2423        20  CHL1      H23A           19.9073586826        5.2363705195        4.7085150000  MEMB      20              0.0000000000
      2424        20  CHL1      H23B           21.4246618622        5.2893445299        5.5684050000  MEMB      20              0.0000000000
      2425        20  CHL1      C24            21.2194953356        3.5863518900        4.0985250000  MEMB      20              0.0000000000
      2426        20  CHL1      H24A           22.0690571233        3.0206041063        4.5372550000  MEMB      20              0.0000000000
      2427        20  CHL1      H24B           20.3717750654        3.0210635179        3.6556450000  MEMB      20              0.0000000000
      2428        20  CHL1      C25            21.7758496158        4.4924474251        2.9983650000  MEMB      20              0.0000000000
      2429        20  CHL1      H25            21.3179039513        5.5009073370        3.0856650000  MEMB      20              0.0000000000
      2430        20  CHL1      C26            23.3343728057        4.7187966576        3.0499850000  MEMB      20              0.0000000000
      2431        20  CHL1      H26A           23.8080324801        3.7143512683        3.0176950000  MEMB      20              0.0000000000
      2432        20  CHL1      H26B           23.7485743304        5.2225877982        2.1505650000  MEMB      20              0.0000000000
      2433        20  CHL1      H26C           23.6485561458        5.3241920700        3.9269750000  MEMB      20              0.0000000000
      2434        20  CHL1      C27            21.5062504567        3.9014557520        1.6016150000  MEMB      20              0.0000000000
      2435        20  CHL1      H27A           20.4319860181        3.6183505484        1.5903150000  MEMB      20              0.0000000000
      2436        20  CHL1      H27B           21.6778983547        4.5670340743        0.7287750000  MEMB      20              0.0000000000
      2437        20  CHL1      H27C           22.0841739706        2.9604072133        1.4801450000  MEMB      20              0.0000000000
      2438        21  CHL1      C3             13.5333991858      -13.1075530835       17.3019300000  MEMB      21              0.0000000000
      2439        21  CHL1      H3             13.9103702149      -14.0638051986       16.8802700000  MEMB      21              0.0000000000
      2440        21  CHL1      O3             13.7468038142      -13.1203645165       18.6980700000  MEMB      21              0.0000000000
      2441        21  CHL1      H3'            13.0573469484      -13.7134629733       19.0054600000  MEMB      21              0.0000000000
      2442        21  CHL1      C4             14.5167643036      -11.9853342838       16.7891700000  MEMB      21              0.0000000000
      2443        21  CHL1      H4A            14.2568268383      -11.0156129831       17.2649700000  MEMB      21              0.0000000000
      2444        21  CHL1      H4B            15.5480799618      -12.2951744605       17.0625200000  MEMB      21              0.0000000000
      2445        21  CHL1      C5             14.4686530681      -11.8159824893       15.3040900000  MEMB      21              0.0000000000
      2446        21  CHL1      C6             15.6424989351      -11.9031079865       14.5815300000  MEMB      21              0.0000000000
      2447        21  CHL1      H6             16.5677458331      -12.1303898074       15.1313300000  MEMB      21              0.0000000000
      2448        21  CHL1      C7             15.6336285666      -11.8905311879       13.0790000000  MEMB      21              0.0000000000
      2449        21  CHL1      H7A            16.3154461765      -11.0615741094       12.7921300000  MEMB      21              0.0000000000
      2450        21  CHL1      H7B            15.8994615465      -12.8259940020       12.5418100000  MEMB      21              0.0000000000
      2451        21  CHL1      C8             14.2648110641      -11.3919173848       12.4326700000  MEMB      21              0.0000000000
      2452        21  CHL1      H8             14.1986335166      -10.2832575338       12.4613100000  MEMB      21              0.0000000000
      2453        21  CHL1      C14            14.3045269974      -11.7072124262       10.9933800000  MEMB      21              0.0000000000
      2454        21  CHL1      H14            14.4068997515      -12.8028955473       10.8406600000  MEMB      21              0.0000000000
      2455        21  CHL1      C15            15.4825850513      -11.1279961371       10.2058500000  MEMB      21              0.0000000000
      2456        21  CHL1      H15A           15.4690599011      -10.0517692564       10.4812900000  MEMB      21              0.0000000000
      2457        21  CHL1      H15B           16.4643930901      -11.6105155936       10.3996500000  MEMB      21              0.0000000000
      2458        21  CHL1      C16            14.9594954946      -11.2888250471        8.7390600000  MEMB      21              0.0000000000
      2459        21  CHL1      H16A           15.0695744499      -10.3154375518        8.2149100000  MEMB      21              0.0000000000
      2460        21  CHL1      H16B           15.6246549641      -11.9466859362        8.1397900000  MEMB      21              0.0000000000
      2461        21  CHL1      C17            13.4898455861      -11.8103194127        8.7801700000  MEMB      21              0.0000000000
      2462        21  CHL1      H17            13.6836299854      -12.8814972217        8.5580300000  MEMB      21              0.0000000000
      2463        21  CHL1      C13            13.0794139429      -11.4201984014       10.2024600000  MEMB      21              0.0000000000
      2464        21  CHL1      C18            12.7908551354       -9.8682950782       10.2063500000  MEMB      21              0.0000000000
      2465        21  CHL1      H18A           13.5063525834       -9.2417629097        9.6320300000  MEMB      21              0.0000000000
      2466        21  CHL1      H18B           11.7340482649       -9.7927202610        9.8720200000  MEMB      21              0.0000000000
      2467        21  CHL1      H18C           12.8171210587       -9.4611265389       11.2397100000  MEMB      21              0.0000000000
      2468        21  CHL1      C12            11.9804460978      -12.1733583923       10.8552600000  MEMB      21              0.0000000000
      2469        21  CHL1      H12A           10.9955244120      -11.9102818705       10.4136200000  MEMB      21              0.0000000000
      2470        21  CHL1      H12B           12.1780782120      -13.2599080582       10.7342100000  MEMB      21              0.0000000000
      2471        21  CHL1      C11            11.7951501520      -11.7425350838       12.3434500000  MEMB      21              0.0000000000
      2472        21  CHL1      H11A           11.6205522235      -10.6584389027       12.5124900000  MEMB      21              0.0000000000
      2473        21  CHL1      H11B           10.9187374211      -12.2299214647       12.8216500000  MEMB      21              0.0000000000
      2474        21  CHL1      C9             13.0374327347      -12.1078311890       13.1368300000  MEMB      21              0.0000000000
      2475        21  CHL1      H9             13.1842011451      -13.2046279536       13.0376600000  MEMB      21              0.0000000000
      2476        21  CHL1      C10            13.0411630342      -11.7084718856       14.6745900000  MEMB      21              0.0000000000
      2477        21  CHL1      C19            12.5766975325      -10.2669121672       14.8277400000  MEMB      21              0.0000000000
      2478        21  CHL1      H19A           13.2941812756       -9.6919081777       14.2041300000  MEMB      21              0.0000000000
      2479        21  CHL1      H19B           11.4966412684      -10.2344645165       14.5693600000  MEMB      21              0.0000000000
      2480        21  CHL1      H19C           12.6650497460      -10.0047784563       15.9037500000  MEMB      21              0.0000000000
      2481        21  CHL1      C1             11.9564254961      -12.6570528345       15.3110700000  MEMB      21              0.0000000000
      2482        21  CHL1      H1A            10.9325009416      -12.2494387290       15.1705300000  MEMB      21              0.0000000000
      2483        21  CHL1      H1B            12.1295463422      -13.6370017222       14.8170600000  MEMB      21              0.0000000000
      2484        21  CHL1      C2             12.0165509984      -12.9797790598       16.8452000000  MEMB      21              0.0000000000
      2485        21  CHL1      H2A            11.4644483153      -13.9382343002       16.9495300000  MEMB      21              0.0000000000
      2486        21  CHL1      H2B            11.4694724768      -12.1671221548       17.3692400000  MEMB      21              0.0000000000
      2487        21  CHL1      C20            12.6748446400      -11.4430506150        7.5201500000  MEMB      21              0.0000000000
      2488        21  CHL1      H20            12.4788088275      -10.3555169161        7.4053500000  MEMB      21              0.0000000000
      2489        21  CHL1      C21            11.3888604776      -12.2085785184        7.5921200000  MEMB      21              0.0000000000
      2490        21  CHL1      H21A           10.8757790365      -12.0926781523        6.6135400000  MEMB      21              0.0000000000
      2491        21  CHL1      H21B           10.6869367911      -11.8285408624        8.3649100000  MEMB      21              0.0000000000
      2492        21  CHL1      H21C           11.6347908702      -13.2883417494        7.6813600000  MEMB      21              0.0000000000
      2493        21  CHL1      C22            13.5735244051      -11.7436672158        6.2759300000  MEMB      21              0.0000000000
      2494        21  CHL1      H22A           14.5286072399      -11.1763242863        6.2918800000  MEMB      21              0.0000000000
      2495        21  CHL1      H22B           13.8814189735      -12.8111423618        6.2800200000  MEMB      21              0.0000000000
      2496        21  CHL1      C23            13.0381871755      -11.5299267799        4.8605600000  MEMB      21              0.0000000000
      2497        21  CHL1      H23A           13.8912514974      -11.7984684287        4.2014200000  MEMB      21              0.0000000000
      2498        21  CHL1      H23B           12.1479564827      -12.1669168534        4.6706800000  MEMB      21              0.0000000000
      2499        21  CHL1      C24            12.6272755411      -10.1236456866        4.6555300000  MEMB      21              0.0000000000
      2500        21  CHL1      H24A           11.6600917943       -9.9273951809        5.1658100000  MEMB      21              0.0000000000
      2501        21  CHL1      H24B           13.3449774217       -9.4635038101        5.1879200000  MEMB      21              0.0000000000
      2502        21  CHL1      C25            12.5393990747       -9.6642861196        3.1885500000  MEMB      21              0.0000000000
      2503        21  CHL1      H25            12.2415641325       -8.5979697747        3.2812100000  MEMB      21              0.0000000000
      2504        21  CHL1      C26            13.8555740618       -9.7693853212        2.3818200000  MEMB      21              0.0000000000
      2505        21  CHL1      H26A           14.1755016020      -10.8318420920        2.4379700000  MEMB      21              0.0000000000
      2506        21  CHL1      H26B           13.7220118927       -9.3994954555        1.3427500000  MEMB      21              0.0000000000
      2507        21  CHL1      H26C           14.4930080186       -9.0274135393        2.9085900000  MEMB      21              0.0000000000
      2508        21  CHL1      C27            11.3809487463      -10.3919834577        2.4833300000  MEMB      21              0.0000000000
      2509        21  CHL1      H27A           11.4750809045      -11.4970172033        2.4173900000  MEMB      21              0.0000000000
      2510        21  CHL1      H27B           10.4389821578      -10.1175048737        3.0045700000  MEMB      21              0.0000000000
      2511        21  CHL1      H27C           11.2162265133      -10.0825774776        1.4290800000  MEMB      21              0.0000000000
      2512        22  SAPE      N             -12.2367911748      -14.5360780543       20.8762495981  MEMB      22              0.0000000000
      2513        22  SAPE      HN1           -12.4540363337      -14.4918464984       21.8923441436  MEMB      22              0.0000000000
      2514        22  SAPE      HN2           -12.0831865695      -15.5601120885       20.7795035749  MEMB      22              0.0000000000
      2515        22  SAPE      HN3           -11.3093583684      -14.0700271111       20.8109434509  MEMB      22              0.0000000000
      2516        22  SAPE      C12           -13.2687586419      -13.8987351252       19.9701489605  MEMB      22              0.0000000000
      2517        22  SAPE      H12A          -13.1946159061      -14.5719150964       19.0894375751  MEMB      22              0.0000000000
      2518        22  SAPE      H12B          -12.9133277572      -12.8581643848       19.8113961101  MEMB      22              0.0000000000
      2519        22  SAPE      C11           -14.7061439568      -13.7725114298       20.5468992808  MEMB      22              0.0000000000
      2520        22  SAPE      H11A          -14.6707286899      -13.2235308060       21.5121385735  MEMB      22              0.0000000000
      2521        22  SAPE      H11B          -14.9872332723      -14.8244965763       20.7674373709  MEMB      22              0.0000000000
      2522        22  SAPE      P             -15.8806256825      -11.6530719738       19.7483203698  MEMB      22              0.0000000000
      2523        22  SAPE      O13           -16.2745922143      -11.3709548626       21.1670628382  MEMB      22              0.0000000000
      2524        22  SAPE      O14           -14.6227903303      -10.9810324380       19.2455589011  MEMB      22              0.0000000000
      2525        22  SAPE      O12           -15.6569734358      -13.2462865504       19.6277648901  MEMB      22              0.0000000000
      2526        22  SAPE      O11           -17.1077917644      -11.2873935647       18.8179951617  MEMB      22              0.0000000000
      2527        22  SAPE      C1            -18.2444248180      -12.0764287372       19.0036952981  MEMB      22              0.0000000000
      2528        22  SAPE      HA            -18.2162882187      -12.7729878683       19.8687587214  MEMB      22              0.0000000000
      2529        22  SAPE      HB            -19.1018543265      -11.4296652385       19.2880056208  MEMB      22              0.0000000000
      2530        22  SAPE      C2            -18.6138262983      -13.0009486466       17.8030279586  MEMB      22              0.0000000000
      2531        22  SAPE      HS            -19.4442227554      -13.6592422163       18.1368127365  MEMB      22              0.0000000000
      2532        22  SAPE      O21           -17.3974208355      -13.7213909204       17.4470544444  MEMB      22              0.0000000000
      2533        22  SAPE      C21           -17.5398166312      -14.5087224470       16.4289422130  MEMB      22              0.0000000000
      2534        22  SAPE      O22           -18.5805188564      -15.0469786364       16.0074788826  MEMB      22              0.0000000000
      2535        22  SAPE      C22           -16.1985979120      -14.6168793189       15.6121926775  MEMB      22              0.0000000000
      2536        22  SAPE      H2R           -16.3481996453      -15.3384884045       14.7807960640  MEMB      22              0.0000000000
      2537        22  SAPE      H2S           -16.0216543320      -13.6174462957       15.1603676824  MEMB      22              0.0000000000
      2538        22  SAPE      C3            -19.2535311488      -12.2494682220       16.5879931216  MEMB      22              0.0000000000
      2539        22  SAPE      HX            -20.1491632160      -11.8259963970       17.0908210228  MEMB      22              0.0000000000
      2540        22  SAPE      HY            -19.6517218984      -12.8838454951       15.7674259369  MEMB      22              0.0000000000
      2541        22  SAPE      O31           -18.4662271547      -11.1673906714       16.1404730568  MEMB      22              0.0000000000
      2542        22  SAPE      C31           -17.8187932688      -11.1908474764       14.9401697510  MEMB      22              0.0000000000
      2543        22  SAPE      O32           -18.0193504700      -12.0274587555       14.0699242752  MEMB      22              0.0000000000
      2544        22  SAPE      C32           -17.0112202754       -9.8847914931       14.7264657975  MEMB      22              0.0000000000
      2545        22  SAPE      H2X           -17.6724950349       -9.0179595617       14.9400990494  MEMB      22              0.0000000000
      2546        22  SAPE      H2Y           -16.6216945814       -9.7816724658       13.6911120290  MEMB      22              0.0000000000
      2547        22  SAPE      C23           -15.0273582831      -15.2080459175       16.4120903203  MEMB      22              0.0000000000
      2548        22  SAPE      H3R           -15.2973929107      -16.2380847695       16.7289850070  MEMB      22              0.0000000000
      2549        22  SAPE      H3S           -14.8187695554      -14.5277841695       17.2653519928  MEMB      22              0.0000000000
      2550        22  SAPE      C24           -13.6023852841      -15.2695990457       15.8088834588  MEMB      22              0.0000000000
      2551        22  SAPE      H4R           -12.9780989054      -15.6926833417       16.6247189165  MEMB      22              0.0000000000
      2552        22  SAPE      H4S           -13.1847510239      -14.2957497878       15.4749373415  MEMB      22              0.0000000000
      2553        22  SAPE      C25           -13.6536023779      -16.2513344570       14.6031673197  MEMB      22              0.0000000000
      2554        22  SAPE      H5R           -13.9649887140      -17.2593226303       14.9146137257  MEMB      22              0.0000000000
      2555        22  SAPE      C26           -13.2624925765      -16.2091973426       13.3241500966  MEMB      22              0.0000000000
      2556        22  SAPE      H6R           -13.4856179155      -17.0040868502       12.5972623146  MEMB      22              0.0000000000
      2557        22  SAPE      C27           -12.5699958940      -14.9694438735       12.9049735060  MEMB      22              0.0000000000
      2558        22  SAPE      H7R           -11.6388760673      -14.9102858159       13.5081626339  MEMB      22              0.0000000000
      2559        22  SAPE      H7S           -13.1330900260      -14.0512692622       13.1773725490  MEMB      22              0.0000000000
      2560        22  SAPE      C28           -12.2787538187      -15.0134351801       11.4299559249  MEMB      22              0.0000000000
      2561        22  SAPE      H8R           -11.4925059683      -15.7248851747       11.1372898165  MEMB      22              0.0000000000
      2562        22  SAPE      C29           -12.9469927023      -14.4112476490       10.4363313208  MEMB      22              0.0000000000
      2563        22  SAPE      H9R           -12.6818165789      -14.6983799888        9.4081112660  MEMB      22              0.0000000000
      2564        22  SAPE      C210          -14.1568748571      -13.5351280407       10.6719944419  MEMB      22              0.0000000000
      2565        22  SAPE      H10R          -14.1923535941      -12.8515017225        9.7969416748  MEMB      22              0.0000000000
      2566        22  SAPE      H10S          -13.8231322551      -12.8411803574       11.4728525016  MEMB      22              0.0000000000
      2567        22  SAPE      C211          -15.5234016698      -14.0385344438       10.9303142063  MEMB      22              0.0000000000
      2568        22  SAPE      H11R          -15.7652510478      -14.0378686785       12.0033973435  MEMB      22              0.0000000000
      2569        22  SAPE      C212          -16.3960315940      -14.4156185017       10.0714214010  MEMB      22              0.0000000000
      2570        22  SAPE      H12R          -17.4160173811      -14.7148178150       10.3544561202  MEMB      22              0.0000000000
      2571        22  SAPE      C213          -16.1091724994      -14.4215931965        8.5958501640  MEMB      22              0.0000000000
      2572        22  SAPE      H13R          -15.0793840876      -14.7949955583        8.4103038683  MEMB      22              0.0000000000
      2573        22  SAPE      H13S          -16.1241681046      -13.3818310972        8.2047094634  MEMB      22              0.0000000000
      2574        22  SAPE      C214          -17.1195787762      -15.2543123348        7.8066262731  MEMB      22              0.0000000000
      2575        22  SAPE      H14R          -18.0168708042      -15.5024679030        8.3925327934  MEMB      22              0.0000000000
      2576        22  SAPE      C215          -16.8562905597      -15.9384793455        6.6327237474  MEMB      22              0.0000000000
      2577        22  SAPE      H15R          -17.5674482466      -16.6593628120        6.2030930739  MEMB      22              0.0000000000
      2578        22  SAPE      C216          -15.4834715877      -15.9501965756        5.9429246082  MEMB      22              0.0000000000
      2579        22  SAPE      H16R          -15.1809405159      -17.0055237410        5.7723951218  MEMB      22              0.0000000000
      2580        22  SAPE      H16S          -14.7076678605      -15.4720792017        6.5784191815  MEMB      22              0.0000000000
      2581        22  SAPE      C217          -15.4306933581      -15.2213109146        4.5986417806  MEMB      22              0.0000000000
      2582        22  SAPE      H17R          -15.7860184735      -14.2395511679        4.9783958897  MEMB      22              0.0000000000
      2583        22  SAPE      H17S          -15.9574017166      -15.6633638980        3.7260085616  MEMB      22              0.0000000000
      2584        22  SAPE      C218          -14.0086959340      -14.8848316691        4.0867559578  MEMB      22              0.0000000000
      2585        22  SAPE      H18R          -13.6868212134      -15.8119071050        3.5659410773  MEMB      22              0.0000000000
      2586        22  SAPE      H18S          -13.4452155844      -14.8258604028        5.0424400415  MEMB      22              0.0000000000
      2587        22  SAPE      C219          -13.9124164896      -13.5425528895        3.2860402204  MEMB      22              0.0000000000
      2588        22  SAPE      H19R          -12.9373761525      -13.0929184019        3.5714291370  MEMB      22              0.0000000000
      2589        22  SAPE      H19S          -14.7773815769      -12.8616881250        3.4363043816  MEMB      22              0.0000000000
      2590        22  SAPE      C220          -13.8276338129      -13.9127958271        1.7587758831  MEMB      22              0.0000000000
      2591        22  SAPE      H20R          -14.8189559109      -14.1514326618        1.3175787743  MEMB      22              0.0000000000
      2592        22  SAPE      H20S          -13.2148643742      -14.8310836197        1.6339488755  MEMB      22              0.0000000000
      2593        22  SAPE      H20T          -13.3464144364      -13.1676129350        1.0898575200  MEMB      22              0.0000000000
      2594        22  SAPE      C33           -15.7853041162       -9.6459168578       15.7179603653  MEMB      22              0.0000000000
      2595        22  SAPE      H3X           -16.0954148967       -9.3920304251       16.7541523768  MEMB      22              0.0000000000
      2596        22  SAPE      H3Y           -15.2778719304       -8.6819374391       15.4998384883  MEMB      22              0.0000000000
      2597        22  SAPE      C34           -14.8258709320      -10.8623406855       15.9017864271  MEMB      22              0.0000000000
      2598        22  SAPE      H4X           -15.5072190631      -11.6966773641       16.1737573090  MEMB      22              0.0000000000
      2599        22  SAPE      H4Y           -14.1631210017      -10.6004705466       16.7541405542  MEMB      22              0.0000000000
      2600        22  SAPE      C35           -14.0795204268      -11.2557284038       14.6445843748  MEMB      22              0.0000000000
      2601        22  SAPE      H5X           -14.6698979581      -11.5996868262       13.7685320099  MEMB      22              0.0000000000
      2602        22  SAPE      H5Y           -13.5156389606      -12.1812426131       14.8890887123  MEMB      22              0.0000000000
      2603        22  SAPE      C36           -12.9608624556      -10.3520803785       14.1132001957  MEMB      22              0.0000000000
      2604        22  SAPE      H6X           -12.3927540932      -11.0474860246       13.4589945333  MEMB      22              0.0000000000
      2605        22  SAPE      H6Y           -12.4183957515      -10.0579832950       15.0370819765  MEMB      22              0.0000000000
      2606        22  SAPE      C37           -13.3945150191       -9.1822575037       13.2511387484  MEMB      22              0.0000000000
      2607        22  SAPE      H7X           -12.7561772697       -8.2732064942       13.2728627400  MEMB      22              0.0000000000
      2608        22  SAPE      H7Y           -14.3944438938       -8.7899959355       13.5350298935  MEMB      22              0.0000000000
      2609        22  SAPE      C38           -13.4136734679       -9.5039026789       11.7089537991  MEMB      22              0.0000000000
      2610        22  SAPE      H8X           -14.1464779671      -10.3212254495       11.5377747319  MEMB      22              0.0000000000
      2611        22  SAPE      H8Y           -12.3491243527       -9.7800686550       11.5515097777  MEMB      22              0.0000000000
      2612        22  SAPE      C39           -13.6170600998       -8.2038029543       10.8584399442  MEMB      22              0.0000000000
      2613        22  SAPE      H9X           -12.6965415178       -7.6017890240       11.0151110640  MEMB      22              0.0000000000
      2614        22  SAPE      H9Y           -14.4895002109       -7.6599840804       11.2796642263  MEMB      22              0.0000000000
      2615        22  SAPE      C310          -13.8630867142       -8.4292753034        9.4257066620  MEMB      22              0.0000000000
      2616        22  SAPE      H10X          -13.0013432284       -9.0039124984        9.0238217534  MEMB      22              0.0000000000
      2617        22  SAPE      H10Y          -13.7685112905       -7.4240262308        8.9621852930  MEMB      22              0.0000000000
      2618        22  SAPE      C311          -15.1705960993       -9.0002848761        8.9009037427  MEMB      22              0.0000000000
      2619        22  SAPE      H11X          -15.8006761818       -8.0854069887        8.9187601040  MEMB      22              0.0000000000
      2620        22  SAPE      H11Y          -15.5914032499       -9.6993907951        9.6548892700  MEMB      22              0.0000000000
      2621        22  SAPE      C312          -15.1279920147       -9.7993126747        7.5771856054  MEMB      22              0.0000000000
      2622        22  SAPE      H12X          -14.3884367803      -10.6282954666        7.5642742823  MEMB      22              0.0000000000
      2623        22  SAPE      H12Y          -14.7796072461       -9.0705656882        6.8143771116  MEMB      22              0.0000000000
      2624        22  SAPE      C313          -16.5071193397      -10.2659494365        7.1081236920  MEMB      22              0.0000000000
      2625        22  SAPE      H13X          -17.2037639439       -9.4414831995        7.3713017740  MEMB      22              0.0000000000
      2626        22  SAPE      H13Y          -16.7986091623      -11.1552377289        7.7068896244  MEMB      22              0.0000000000
      2627        22  SAPE      C314          -16.3180684809      -10.6627147737        5.6290590599  MEMB      22              0.0000000000
      2628        22  SAPE      H14X          -15.4774073015      -11.3741223300        5.4823991658  MEMB      22              0.0000000000
      2629        22  SAPE      H14Y          -16.0608620476       -9.8292538417        4.9409393247  MEMB      22              0.0000000000
      2630        22  SAPE      C315          -17.5439606968      -11.3318986666        5.0038737111  MEMB      22              0.0000000000
      2631        22  SAPE      H15X          -18.3471651529      -10.5674621473        4.9344434265  MEMB      22              0.0000000000
      2632        22  SAPE      H15Y          -17.7681603420      -12.1921943975        5.6701673504  MEMB      22              0.0000000000
      2633        22  SAPE      C316          -17.4710270273      -11.8448797212        3.5649970177  MEMB      22              0.0000000000
      2634        22  SAPE      H16X          -16.5995496910      -12.5309388856        3.5004128091  MEMB      22              0.0000000000
      2635        22  SAPE      H16Y          -17.2731233060      -10.9868575768        2.8875357248  MEMB      22              0.0000000000
      2636        22  SAPE      C317          -18.6446232736      -12.6113081028        2.9798622640  MEMB      22              0.0000000000
      2637        22  SAPE      H17X          -19.5022088987      -12.0088715340        2.6111645589  MEMB      22              0.0000000000
      2638        22  SAPE      H17Y          -19.2298163200      -12.9749428621        3.8514360105  MEMB      22              0.0000000000
      2639        22  SAPE      C318          -18.3672742575      -13.7887977464        1.9716270746  MEMB      22              0.0000000000
      2640        22  SAPE      H18X          -17.4991328768      -14.4489511778        2.1834041292  MEMB      22              0.0000000000
      2641        22  SAPE      H18Y          -18.2119908666      -13.2281283019        1.0251306432  MEMB      22              0.0000000000
      2642        22  SAPE      H18Z          -19.2972687213      -14.3804811010        1.8325507955  MEMB      22              0.0000000000
      2643        23  OSM       N              -8.9365340536      -16.7198152700       20.3721507393  MEMB      23              0.0000000000
      2644        23  OSM       C15            -9.0121796340      -15.6340065902       21.4575621431  MEMB      23              0.0000000000
      2645        23  OSM       H15A           -9.1805029771      -16.1467273275       22.3930753021  MEMB      23              0.0000000000
      2646        23  OSM       H15B           -9.8374439438      -14.9587186858       21.2863164143  MEMB      23              0.0000000000
      2647        23  OSM       H15C           -8.0207584331      -15.2057157334       21.4646942840  MEMB      23              0.0000000000
      2648        23  OSM       C14            -8.6486575374      -16.0527533230       19.0658443501  MEMB      23              0.0000000000
      2649        23  OSM       H14A           -8.7924730492      -16.8243382079       18.3239724521  MEMB      23              0.0000000000
      2650        23  OSM       H14B           -7.6233141309      -15.7176156519       19.0133691208  MEMB      23              0.0000000000
      2651        23  OSM       H14C           -9.3830641820      -15.2895473062       18.8547440226  MEMB      23              0.0000000000
      2652        23  OSM       C13            -7.8107928359      -17.7065960715       20.5684873030  MEMB      23              0.0000000000
      2653        23  OSM       H13A           -6.8946909617      -17.1381510127       20.5050239342  MEMB      23              0.0000000000
      2654        23  OSM       H13B           -7.8449295260      -18.4448362846       19.7809365317  MEMB      23              0.0000000000
      2655        23  OSM       H13C           -7.9242958572      -18.0808828342       21.5751781807  MEMB      23              0.0000000000
      2656        23  OSM       C12           -10.2332458776      -17.4627383353       20.1989126236  MEMB      23              0.0000000000
      2657        23  OSM       H12A          -10.1863066247      -18.0851909323       19.3175786692  MEMB      23              0.0000000000
      2658        23  OSM       H12B          -10.9644239261      -16.7079501505       19.9497671367  MEMB      23              0.0000000000
      2659        23  OSM       C11           -10.8804747122      -18.2012716110       21.3870262332  MEMB      23              0.0000000000
      2660        23  OSM       H11A          -11.8686108647      -18.6600226089       21.1691830814  MEMB      23              0.0000000000
      2661        23  OSM       H11B          -11.1391158067      -17.3418003216       22.0418047080  MEMB      23              0.0000000000
      2662        23  OSM       P              -9.8043039722      -20.6262017600       21.6198442685  MEMB      23              0.0000000000
      2663        23  OSM       O13            -8.5518440513      -21.1105199393       22.2124471113  MEMB      23              0.0000000000
      2664        23  OSM       O14           -11.0329845350      -21.3694864031       21.9658685585  MEMB      23              0.0000000000
      2665        23  OSM       O11            -9.7073481399      -20.4994562348       20.0517912215  MEMB      23              0.0000000000
      2666        23  OSM       O12            -9.9667582613      -19.0704507579       22.1000654491  MEMB      23              0.0000000000
      2667        23  OSM       C1S           -10.7259436337      -20.9160007798       19.1473876816  MEMB      23              0.0000000000
      2668        23  OSM       H1S           -11.6766287237      -20.3848094277       19.3672846365  MEMB      23              0.0000000000
      2669        23  OSM       H1T           -10.9161726092      -21.9791284388       19.4079517799  MEMB      23              0.0000000000
      2670        23  OSM       NF            -11.5730144412      -20.6342841038       16.9197081864  MEMB      23              0.0000000000
      2671        23  OSM       HNF           -11.7149927851      -21.4215796987       16.3247151733  MEMB      23              0.0000000000
      2672        23  OSM       C2S           -10.3893864636      -20.7189122097       17.6339271825  MEMB      23              0.0000000000
      2673        23  OSM       H2S            -9.7495197844      -19.8204783049       17.5008552505  MEMB      23              0.0000000000
      2674        23  OSM       C3S            -9.6318521991      -21.9976703777       17.2586609104  MEMB      23              0.0000000000
      2675        23  OSM       H3S           -10.2157567122      -22.9117880515       17.4990049884  MEMB      23              0.0000000000
      2676        23  OSM       O3             -8.4227836773      -22.0929360902       18.0115282430  MEMB      23              0.0000000000
      2677        23  OSM       HO3            -8.4692697975      -21.2867848930       18.5307190291  MEMB      23              0.0000000000
      2678        23  OSM       C4S            -9.3049904647      -22.0466635913       15.7907621516  MEMB      23              0.0000000000
      2679        23  OSM       H4S            -8.3443593033      -21.5547200238       15.5782081093  MEMB      23              0.0000000000
      2680        23  OSM       C5S            -9.9976780921      -22.7396474158       14.8803177343  MEMB      23              0.0000000000
      2681        23  OSM       H5S           -10.8468570340      -23.3321912734       15.2515143335  MEMB      23              0.0000000000
      2682        23  OSM       C6S            -9.6887595264      -22.7598065518       13.4018049744  MEMB      23              0.0000000000
      2683        23  OSM       H6S           -10.6309814777      -23.0330168750       12.8803699768  MEMB      23              0.0000000000
      2684        23  OSM       H6T            -9.0176261657      -23.6257762886       13.2174193315  MEMB      23              0.0000000000
      2685        23  OSM       C7S            -9.1292484581      -21.4713337875       12.7733273990  MEMB      23              0.0000000000
      2686        23  OSM       H7S            -8.3399289549      -20.9782525227       13.3800948950  MEMB      23              0.0000000000
      2687        23  OSM       H7T            -9.9693896640      -20.7445705549       12.7560371669  MEMB      23              0.0000000000
      2688        23  OSM       C8S            -8.8939431448      -21.5768410380       11.1984056287  MEMB      23              0.0000000000
      2689        23  OSM       H8S            -8.0122410842      -22.2149389741       10.9753507422  MEMB      23              0.0000000000
      2690        23  OSM       H8T            -8.5930024982      -20.5469445448       10.9101890638  MEMB      23              0.0000000000
      2691        23  OSM       C9S           -10.1607164024      -22.0108949981       10.4397896005  MEMB      23              0.0000000000
      2692        23  OSM       H9S           -10.9130529424      -21.1950153517       10.4912771024  MEMB      23              0.0000000000
      2693        23  OSM       H9T           -10.6312097170      -22.9769183433       10.7222011819  MEMB      23              0.0000000000
      2694        23  OSM       C10S           -9.7644305068      -22.2263041573        9.0322050001  MEMB      23              0.0000000000
      2695        23  OSM       H10S           -9.5049598095      -23.3014008421        8.9265480814  MEMB      23              0.0000000000
      2696        23  OSM       H10T           -8.8081022118      -21.7137470556        8.7933702712  MEMB      23              0.0000000000
      2697        23  OSM       C11S          -10.8315025195      -21.6953788343        8.0172771802  MEMB      23              0.0000000000
      2698        23  OSM       H11S          -10.9439564172      -20.6271296270        8.3010362072  MEMB      23              0.0000000000
      2699        23  OSM       H11T          -11.8698464494      -22.0488475076        8.1939768985  MEMB      23              0.0000000000
      2700        23  OSM       C12S          -10.3914933616      -21.9194174280        6.5645710196  MEMB      23              0.0000000000
      2701        23  OSM       H12S          -10.3191894790      -23.0263942708        6.5037804830  MEMB      23              0.0000000000
      2702        23  OSM       H12T           -9.4188885934      -21.4347955737        6.3332643144  MEMB      23              0.0000000000
      2703        23  OSM       C13S          -11.5423687741      -21.4877580881        5.5531830724  MEMB      23              0.0000000000
      2704        23  OSM       H13S          -11.9389093821      -20.5031482464        5.8812380755  MEMB      23              0.0000000000
      2705        23  OSM       H13T          -12.3927312309      -22.1759001888        5.7472585053  MEMB      23              0.0000000000
      2706        23  OSM       C14S          -11.1512778960      -21.5834358423        4.0630025306  MEMB      23              0.0000000000
      2707        23  OSM       H14S          -10.9023910836      -22.6618253720        3.9657754709  MEMB      23              0.0000000000
      2708        23  OSM       H14T          -10.2596362171      -20.9281048697        3.9638193306  MEMB      23              0.0000000000
      2709        23  OSM       C15S          -12.1512007319      -20.9486012977        3.1263490107  MEMB      23              0.0000000000
      2710        23  OSM       H15S          -12.3688033899      -19.9145941927        3.4695672519  MEMB      23              0.0000000000
      2711        23  OSM       H15T          -13.1291954157      -21.4604170633        3.0002863672  MEMB      23              0.0000000000
      2712        23  OSM       C16S          -11.6275234656      -20.8867868910        1.7104582150  MEMB      23              0.0000000000
      2713        23  OSM       H16S          -10.9602453403      -19.9988209412        1.6864303493  MEMB      23              0.0000000000
      2714        23  OSM       H16T          -12.4522625194      -20.4733948121        1.0913986226  MEMB      23              0.0000000000
      2715        23  OSM       C17S          -11.0160939045      -22.1520346507        1.1657675145  MEMB      23              0.0000000000
      2716        23  OSM       H17S          -11.7483575491      -22.9861283623        1.1167875455  MEMB      23              0.0000000000
      2717        23  OSM       H17T          -10.1697574869      -22.3449568443        1.8591786405  MEMB      23              0.0000000000
      2718        23  OSM       C18S          -10.3943733922      -21.8897141644       -0.1501808467  MEMB      23              0.0000000000
      2719        23  OSM       H18S          -11.1201099793      -21.4714541976       -0.8800329991  MEMB      23              0.0000000000
      2720        23  OSM       H18T           -9.7940181101      -22.7895530010       -0.4035266751  MEMB      23              0.0000000000
      2721        23  OSM       H18U           -9.5634691975      -21.1574741985       -0.0621788779  MEMB      23              0.0000000000
      2722        23  OSM       C1F           -12.2616956603      -19.5133603349       16.9477872741  MEMB      23              0.0000000000
      2723        23  OSM       OF            -12.0213800981      -18.5656884106       17.7458392328  MEMB      23              0.0000000000
      2724        23  OSM       C2F           -13.5227224456      -19.3926787982       16.0882181050  MEMB      23              0.0000000000
      2725        23  OSM       H2F           -14.4840152521      -19.5785871973       16.6132660402  MEMB      23              0.0000000000
      2726        23  OSM       H2G           -13.3509778079      -20.2405845098       15.3911667290  MEMB      23              0.0000000000
      2727        23  OSM       C3F           -13.6908874756      -18.0403188659       15.4442721314  MEMB      23              0.0000000000
      2728        23  OSM       H3F           -13.7763949536      -17.3113254374       16.2782853282  MEMB      23              0.0000000000
      2729        23  OSM       H3G           -14.6317490353      -18.1253776703       14.8595795366  MEMB      23              0.0000000000
      2730        23  OSM       C4F           -12.5511547617      -17.7250418387       14.5437651671  MEMB      23              0.0000000000
      2731        23  OSM       H4F           -12.1183076843      -18.6015644261       14.0158706947  MEMB      23              0.0000000000
      2732        23  OSM       H4G           -11.7368020709      -17.2672862953       15.1451060168  MEMB      23              0.0000000000
      2733        23  OSM       C5F           -12.8569139212      -16.6498502230       13.4565599206  MEMB      23              0.0000000000
      2734        23  OSM       H5F           -13.0683291248      -15.6111203526       13.7892228120  MEMB      23              0.0000000000
      2735        23  OSM       H5G           -13.6918186322      -16.9709501717       12.7976593560  MEMB      23              0.0000000000
      2736        23  OSM       C6F           -11.6127220630      -16.3878204305       12.5052241639  MEMB      23              0.0000000000
      2737        23  OSM       H6F           -11.9370121407      -15.8064508308       11.6157488599  MEMB      23              0.0000000000
      2738        23  OSM       H6G           -11.1415231376      -17.3090882520       12.1008007749  MEMB      23              0.0000000000
      2739        23  OSM       C7F           -10.4971670100      -15.5939331182       13.2019670411  MEMB      23              0.0000000000
      2740        23  OSM       H7F           -10.2429891709      -16.0480764597       14.1835313361  MEMB      23              0.0000000000
      2741        23  OSM       H7G           -10.7611093849      -14.5375822786       13.4228243711  MEMB      23              0.0000000000
      2742        23  OSM       C8F            -9.0862564655      -15.6050283273       12.5092701511  MEMB      23              0.0000000000
      2743        23  OSM       H8F            -8.8700267338      -16.6839464293       12.3559696913  MEMB      23              0.0000000000
      2744        23  OSM       H8G            -8.2965935008      -15.2624423799       13.2116867049  MEMB      23              0.0000000000
      2745        23  OSM       C9F            -8.9219555386      -14.9862693485       11.1294487212  MEMB      23              0.0000000000
      2746        23  OSM       H9F            -9.1309694858      -13.9068138865       11.0964493037  MEMB      23              0.0000000000
      2747        23  OSM       C10F           -8.6962218309      -15.5978570379        9.9750795074  MEMB      23              0.0000000000
      2748        23  OSM       H10F           -8.6981153586      -14.9217045702        9.1074315472  MEMB      23              0.0000000000
      2749        23  OSM       C11F           -8.4943480327      -17.0753517014        9.7041603761  MEMB      23              0.0000000000
      2750        23  OSM       H11F           -8.6823319090      -17.7411629551       10.5734584950  MEMB      23              0.0000000000
      2751        23  OSM       H11G           -7.5143393240      -17.1503045814        9.1861976004  MEMB      23              0.0000000000
      2752        23  OSM       C12F           -9.6013733541      -17.5464870269        8.6760582526  MEMB      23              0.0000000000
      2753        23  OSM       H12F          -10.5920092575      -17.0537269348        8.7768008630  MEMB      23              0.0000000000
      2754        23  OSM       H12G           -9.6958723705      -18.6365998165        8.8685287403  MEMB      23              0.0000000000
      2755        23  OSM       C13F           -9.2092824843      -17.4423441919        7.1891342141  MEMB      23              0.0000000000
      2756        23  OSM       H13F           -8.4822252816      -18.2023574980        6.8312400977  MEMB      23              0.0000000000
      2757        23  OSM       H13G           -8.8167131807      -16.4095711372        7.0725579698  MEMB      23              0.0000000000
      2758        23  OSM       C14F          -10.3721459881      -17.5601675168        6.1380601466  MEMB      23              0.0000000000
      2759        23  OSM       H14F          -11.3588115461      -17.3372254151        6.5975261657  MEMB      23              0.0000000000
      2760        23  OSM       H14G          -10.3048323454      -18.5923483780        5.7326071476  MEMB      23              0.0000000000
      2761        23  OSM       C15F          -10.2168381535      -16.4909330902        5.0332065093  MEMB      23              0.0000000000
      2762        23  OSM       H15F           -9.1888604438      -16.5697391460        4.6192349527  MEMB      23              0.0000000000
      2763        23  OSM       H15G          -10.2468384553      -15.4218176526        5.3338943166  MEMB      23              0.0000000000
      2764        23  OSM       C16F          -11.1756386250      -16.7269082315        3.8936017077  MEMB      23              0.0000000000
      2765        23  OSM       H16F          -12.2002898619      -16.4866110958        4.2495054181  MEMB      23              0.0000000000
      2766        23  OSM       H16G          -11.1829614427      -17.8146195605        3.6674338998  MEMB      23              0.0000000000
      2767        23  OSM       C17F          -11.0956264063      -15.7630745545        2.6961608405  MEMB      23              0.0000000000
      2768        23  OSM       H17F          -10.0470752687      -15.5940813408        2.3701189607  MEMB      23              0.0000000000
      2769        23  OSM       H17G          -11.4543946887      -14.7929300385        3.1016545489  MEMB      23              0.0000000000
      2770        23  OSM       C18F          -11.8997629616      -16.0941751221        1.5206923353  MEMB      23              0.0000000000
      2771        23  OSM       H18F          -11.7389399359      -15.3569951941        0.7052030015  MEMB      23              0.0000000000
      2772        23  OSM       H18G          -12.9810315489      -16.0975726221        1.7759731643  MEMB      23              0.0000000000
      2773        23  OSM       H18H          -11.6215672840      -17.1185049319        1.1925516920  MEMB      23              0.0000000000
      2774        24  CHL1      C3             -5.9701060659       20.1559938808       17.3746050000  MEMB      24              0.0000000000
      2775        24  CHL1      H3             -4.8683434964       20.0444265345       17.4639650000  MEMB      24              0.0000000000
      2776        24  CHL1      O3             -6.5378763341       19.8338377192       18.6253950000  MEMB      24              0.0000000000
      2777        24  CHL1      H3'            -6.5079811012       18.8772563092       18.7006750000  MEMB      24              0.0000000000
      2778        24  CHL1      C4             -6.2123947150       21.6295318371       17.0765150000  MEMB      24              0.0000000000
      2779        24  CHL1      H4A            -7.3159826008       21.7576467488       17.0781250000  MEMB      24              0.0000000000
      2780        24  CHL1      H4B            -5.7404019622       22.2473972605       17.8701150000  MEMB      24              0.0000000000
      2781        24  CHL1      C5             -5.8061126363       22.0758505292       15.6479850000  MEMB      24              0.0000000000
      2782        24  CHL1      C6             -4.8983608212       22.9967085648       15.4298750000  MEMB      24              0.0000000000
      2783        24  CHL1      H6             -4.5392643755       23.4986133796       16.3404450000  MEMB      24              0.0000000000
      2784        24  CHL1      C7             -4.5948964491       23.5280745096       14.0487750000  MEMB      24              0.0000000000
      2785        24  CHL1      H7A            -4.7356785252       24.6300631619       14.0601450000  MEMB      24              0.0000000000
      2786        24  CHL1      H7B            -3.5675066255       23.2894072532       13.6997350000  MEMB      24              0.0000000000
      2787        24  CHL1      C8             -5.5316180054       23.0523321744       12.9304150000  MEMB      24              0.0000000000
      2788        24  CHL1      H8             -6.5174303630       23.5633509103       12.9671550000  MEMB      24              0.0000000000
      2789        24  CHL1      C14            -4.7616965399       23.1138380624       11.6143450000  MEMB      24              0.0000000000
      2790        24  CHL1      H14            -3.9852899856       22.3196520154       11.6422350000  MEMB      24              0.0000000000
      2791        24  CHL1      C15            -4.0384143167       24.4738317104       11.1997150000  MEMB      24              0.0000000000
      2792        24  CHL1      H15A           -4.6590988185       25.3096694182       11.5875650000  MEMB      24              0.0000000000
      2793        24  CHL1      H15B           -3.0898820037       24.4998581659       11.7775850000  MEMB      24              0.0000000000
      2794        24  CHL1      C16            -3.9673525827       24.3486223387        9.7227050000  MEMB      24              0.0000000000
      2795        24  CHL1      H16A           -4.5798560337       25.1316546897        9.2267150000  MEMB      24              0.0000000000
      2796        24  CHL1      H16B           -2.9158971186       24.4431441749        9.3765250000  MEMB      24              0.0000000000
      2797        24  CHL1      C17            -4.7981611534       23.0408556798        9.2870950000  MEMB      24              0.0000000000
      2798        24  CHL1      H17            -4.0749115501       22.1998682198        9.3500850000  MEMB      24              0.0000000000
      2799        24  CHL1      C13            -5.6749340420       22.6697307267       10.4377250000  MEMB      24              0.0000000000
      2800        24  CHL1      C18            -6.9586893063       23.4544974541       10.2544350000  MEMB      24              0.0000000000
      2801        24  CHL1      H18A           -7.3940088617       23.1746995253        9.2713050000  MEMB      24              0.0000000000
      2802        24  CHL1      H18B           -7.6763386251       23.1341580700       11.0397250000  MEMB      24              0.0000000000
      2803        24  CHL1      H18C           -6.8730305584       24.5621444975       10.2445650000  MEMB      24              0.0000000000
      2804        24  CHL1      C12            -6.0459567855       21.2021946801       10.5489050000  MEMB      24              0.0000000000
      2805        24  CHL1      H12A           -6.8793893496       20.9589063992        9.8557050000  MEMB      24              0.0000000000
      2806        24  CHL1      H12B           -5.0999046305       20.6685002857       10.3154950000  MEMB      24              0.0000000000
      2807        24  CHL1      C11            -6.5226732850       20.8245743786       12.0052250000  MEMB      24              0.0000000000
      2808        24  CHL1      H11A           -7.5809139601       21.1547327339       12.0789850000  MEMB      24              0.0000000000
      2809        24  CHL1      H11B           -6.5552322978       19.7226504312       12.1431850000  MEMB      24              0.0000000000
      2810        24  CHL1      C9             -5.7549145865       21.4977910179       13.2196550000  MEMB      24              0.0000000000
      2811        24  CHL1      H9             -4.7176633128       21.0997706621       13.2222250000  MEMB      24              0.0000000000
      2812        24  CHL1      C10            -6.3725775715       21.2202704084       14.5655850000  MEMB      24              0.0000000000
      2813        24  CHL1      C19            -7.8620436396       21.4794819291       14.5598150000  MEMB      24              0.0000000000
      2814        24  CHL1      H19A           -7.9864238162       22.4781711046       14.0892250000  MEMB      24              0.0000000000
      2815        24  CHL1      H19B           -8.4495042126       20.7264998087       13.9921550000  MEMB      24              0.0000000000
      2816        24  CHL1      H19C           -8.3673674802       21.6123470767       15.5402850000  MEMB      24              0.0000000000
      2817        24  CHL1      C1             -6.0055656470       19.6954747253       14.9182450000  MEMB      24              0.0000000000
      2818        24  CHL1      H1A            -6.4451477454       19.0173853665       14.1558250000  MEMB      24              0.0000000000
      2819        24  CHL1      H1B            -4.9083311588       19.5744403742       14.7927450000  MEMB      24              0.0000000000
      2820        24  CHL1      C2             -6.5374381982       19.1922428560       16.2576850000  MEMB      24              0.0000000000
      2821        24  CHL1      H2A            -6.3099376382       18.1320969362       16.4998650000  MEMB      24              0.0000000000
      2822        24  CHL1      H2B            -7.6291780928       19.3813886689       16.3392750000  MEMB      24              0.0000000000
      2823        24  CHL1      C20            -5.2795770572       23.0641831213        7.7803650000  MEMB      24              0.0000000000
      2824        24  CHL1      H20            -6.1708656880       23.7229181000        7.7028950000  MEMB      24              0.0000000000
      2825        24  CHL1      C21            -5.7248063298       21.6780436542        7.3494350000  MEMB      24              0.0000000000
      2826        24  CHL1      H21A           -6.4959365959       21.2738952684        8.0396050000  MEMB      24              0.0000000000
      2827        24  CHL1      H21B           -4.8267014742       21.0358398787        7.4731050000  MEMB      24              0.0000000000
      2828        24  CHL1      H21C           -5.9992536907       21.6218934119        6.2743350000  MEMB      24              0.0000000000
      2829        24  CHL1      C22            -4.2488772939       23.6775249998        6.8751450000  MEMB      24              0.0000000000
      2830        24  CHL1      H22A           -3.8192537843       24.6573055986        7.1747550000  MEMB      24              0.0000000000
      2831        24  CHL1      H22B           -3.4412377564       22.9149365296        6.8522350000  MEMB      24              0.0000000000
      2832        24  CHL1      C23            -4.7758819644       23.8597609648        5.4217250000  MEMB      24              0.0000000000
      2833        24  CHL1      H23A           -5.0237303869       22.8259524972        5.0990350000  MEMB      24              0.0000000000
      2834        24  CHL1      H23B           -5.7194438237       24.4265188198        5.5727050000  MEMB      24              0.0000000000
      2835        24  CHL1      C24            -3.7945946137       24.5177609308        4.3755350000  MEMB      24              0.0000000000
      2836        24  CHL1      H24A           -3.3981334745       25.4669598097        4.7952550000  MEMB      24              0.0000000000
      2837        24  CHL1      H24B           -2.8837283700       23.9085208122        4.1925850000  MEMB      24              0.0000000000
      2838        24  CHL1      C25            -4.2774772830       24.8029464573        2.8960450000  MEMB      24              0.0000000000
      2839        24  CHL1      H25            -4.8672352174       23.8938829045        2.6508650000  MEMB      24              0.0000000000
      2840        24  CHL1      C26            -5.1039756316       26.0735771078        2.8405050000  MEMB      24              0.0000000000
      2841        24  CHL1      H26A           -4.5444651919       26.9573649278        3.2149250000  MEMB      24              0.0000000000
      2842        24  CHL1      H26B           -5.4081937494       26.3911764416        1.8202650000  MEMB      24              0.0000000000
      2843        24  CHL1      H26C           -6.0157111144       26.0391606235        3.4744350000  MEMB      24              0.0000000000
      2844        24  CHL1      C27            -3.0730535334       24.9246115303        1.8991250000  MEMB      24              0.0000000000
      2845        24  CHL1      H27A           -2.6027068729       23.9298022198        1.7459750000  MEMB      24              0.0000000000
      2846        24  CHL1      H27B           -3.4453073904       25.3054823931        0.9240950000  MEMB      24              0.0000000000
      2847        24  CHL1      H27C           -2.3190930764       25.6553709697        2.2622650000  MEMB      24              0.0000000000
      2848        25  OSM       N               1.8273523129       23.0025457605       19.5743800775  MEMB      25              0.0000000000
      2849        25  OSM       C15             2.3665575065       24.1046112414       20.4973365955  MEMB      25              0.0000000000
      2850        25  OSM       H15A            2.1026760830       23.9461375021       21.5325432364  MEMB      25              0.0000000000
      2851        25  OSM       H15B            1.9558220803       25.0098814389       20.0752202726  MEMB      25              0.0000000000
      2852        25  OSM       H15C            3.4422794903       24.1951681955       20.4653727061  MEMB      25              0.0000000000
      2853        25  OSM       C14             0.4004195913       23.0365553828       19.7762207419  MEMB      25              0.0000000000
      2854        25  OSM       H14A           -0.0318182936       23.7765754259       19.1189986622  MEMB      25              0.0000000000
      2855        25  OSM       H14B            0.1861756976       23.4705459751       20.7417008287  MEMB      25              0.0000000000
      2856        25  OSM       H14C           -0.0315886758       22.0809367277       19.5182247111  MEMB      25              0.0000000000
      2857        25  OSM       C13             2.1954703996       23.3555241201       18.1179724941  MEMB      25              0.0000000000
      2858        25  OSM       H13A            1.7250731557       24.2708506423       17.7903994945  MEMB      25              0.0000000000
      2859        25  OSM       H13B            1.9558390948       22.4982286748       17.5063997167  MEMB      25              0.0000000000
      2860        25  OSM       H13C            3.2285837949       23.6678813603       18.0791190987  MEMB      25              0.0000000000
      2861        25  OSM       C12             2.5377049498       21.7663862092       20.0085982139  MEMB      25              0.0000000000
      2862        25  OSM       H12A            3.5872777606       21.7897723337       19.7551227531  MEMB      25              0.0000000000
      2863        25  OSM       H12B            2.0804038278       20.9678051908       19.4433159489  MEMB      25              0.0000000000
      2864        25  OSM       C11             2.5044019033       21.2155165389       21.5594386698  MEMB      25              0.0000000000
      2865        25  OSM       H11A            2.6429729751       22.1050328810       22.2104991571  MEMB      25              0.0000000000
      2866        25  OSM       H11B            3.3516335794       20.5003699709       21.6307463920  MEMB      25              0.0000000000
      2867        25  OSM       P               1.0226072020       19.1534369561       22.3730681705  MEMB      25              0.0000000000
      2868        25  OSM       O13             2.0911803411       18.8210899919       23.3117761196  MEMB      25              0.0000000000
      2869        25  OSM       O14            -0.3217664176       19.0090298326       22.8723232234  MEMB      25              0.0000000000
      2870        25  OSM       O11             1.1584389423       18.2122459690       21.0844077993  MEMB      25              0.0000000000
      2871        25  OSM       O12             1.1710164200       20.6419073937       21.8244778968  MEMB      25              0.0000000000
      2872        25  OSM       C1S             0.2495149147       18.2803001268       20.0147882945  MEMB      25              0.0000000000
      2873        25  OSM       H1S            -0.6151096103       18.9509065884       20.2072260058  MEMB      25              0.0000000000
      2874        25  OSM       H1T            -0.0557771470       17.2173324380       19.9088742096  MEMB      25              0.0000000000
      2875        25  OSM       NF             -0.2113646620       18.9229975464       17.5221170358  MEMB      25              0.0000000000
      2876        25  OSM       HNF             0.0050258917       18.4013571472       16.7004873938  MEMB      25              0.0000000000
      2877        25  OSM       C2S             0.7806308172       18.8429791415       18.5883334101  MEMB      25              0.0000000000
      2878        25  OSM       H2S             1.2942874468       19.8148271619       18.7495453836  MEMB      25              0.0000000000
      2879        25  OSM       C3S             1.8911387115       17.8132994923       18.0558457809  MEMB      25              0.0000000000
      2880        25  OSM       H3S             1.4100129916       16.8182161229       17.9433819963  MEMB      25              0.0000000000
      2881        25  OSM       O3              2.8963697453       17.6320961208       19.0288715065  MEMB      25              0.0000000000
      2882        25  OSM       HO3             2.6940702411       18.1034608641       19.8403456168  MEMB      25              0.0000000000
      2883        25  OSM       C4S             2.4544198642       18.2653492420       16.7403898687  MEMB      25              0.0000000000
      2884        25  OSM       H4S             2.2641235751       17.7007490665       15.8157202243  MEMB      25              0.0000000000
      2885        25  OSM       C5S             3.0757333952       19.4428336921       16.5665134236  MEMB      25              0.0000000000
      2886        25  OSM       H5S             3.2030912682       20.0217920604       17.4931130780  MEMB      25              0.0000000000
      2887        25  OSM       C6S             3.6090380494       19.9054548313       15.1897927669  MEMB      25              0.0000000000
      2888        25  OSM       H6S             4.7055204952       20.0363285608       15.3119372033  MEMB      25              0.0000000000
      2889        25  OSM       H6T             3.2200819390       20.9357128488       15.0428150360  MEMB      25              0.0000000000
      2890        25  OSM       C7S             3.2132291112       19.1228988989       13.8907700843  MEMB      25              0.0000000000
      2891        25  OSM       H7S             3.4112768391       18.0298014108       13.9061218473  MEMB      25              0.0000000000
      2892        25  OSM       H7T             3.8324680021       19.6172933803       13.1120283792  MEMB      25              0.0000000000
      2893        25  OSM       C8S             1.7432020950       19.3431634447       13.4743912654  MEMB      25              0.0000000000
      2894        25  OSM       H8S             1.3096173205       20.3550606500       13.6240209254  MEMB      25              0.0000000000
      2895        25  OSM       H8T             1.2070645018       18.6218230313       14.1274960299  MEMB      25              0.0000000000
      2896        25  OSM       C9S             1.3968723590       18.8183307264       12.0497378446  MEMB      25              0.0000000000
      2897        25  OSM       H9S             0.3101330959       18.8801978833       11.8272709430  MEMB      25              0.0000000000
      2898        25  OSM       H9T             1.7623847669       17.7694203616       12.0271903303  MEMB      25              0.0000000000
      2899        25  OSM       C10S            2.1689946856       19.5482000145       11.0069305066  MEMB      25              0.0000000000
      2900        25  OSM       H10S            3.2504143221       19.3065224304       11.0872059999  MEMB      25              0.0000000000
      2901        25  OSM       H10T            2.0157533021       20.6485542519       11.0145725445  MEMB      25              0.0000000000
      2902        25  OSM       C11S            1.6144468091       19.1137969997        9.6146326218  MEMB      25              0.0000000000
      2903        25  OSM       H11S            0.5853245170       19.5262192891        9.5429625587  MEMB      25              0.0000000000
      2904        25  OSM       H11T            1.6726704313       18.0134579966        9.7567057101  MEMB      25              0.0000000000
      2905        25  OSM       C12S            2.3998236032       19.5796306270        8.4239552764  MEMB      25              0.0000000000
      2906        25  OSM       H12S            1.9974463506       19.1753940784        7.4705362991  MEMB      25              0.0000000000
      2907        25  OSM       H12T            3.4636494119       19.2770405969        8.5290020393  MEMB      25              0.0000000000
      2908        25  OSM       C13S            2.5009614275       21.1015653230        8.2672515640  MEMB      25              0.0000000000
      2909        25  OSM       H13S            3.0753282680       21.6138024967        9.0685231926  MEMB      25              0.0000000000
      2910        25  OSM       H13T            1.4605216082       21.4902579486        8.2403452888  MEMB      25              0.0000000000
      2911        25  OSM       C14S            3.1652925358       21.5394479378        6.8877271002  MEMB      25              0.0000000000
      2912        25  OSM       H14S            4.2512874928       21.3225198871        6.9764806138  MEMB      25              0.0000000000
      2913        25  OSM       H14T            3.0368100366       22.6429784487        6.8935298814  MEMB      25              0.0000000000
      2914        25  OSM       C15S            2.5836122881       21.0197973031        5.5385173721  MEMB      25              0.0000000000
      2915        25  OSM       H15S            1.7279339168       20.3235770395        5.6704755372  MEMB      25              0.0000000000
      2916        25  OSM       H15T            3.2887495560       20.5508179570        4.8193786483  MEMB      25              0.0000000000
      2917        25  OSM       C16S            2.1061736013       22.1930077911        4.6856055997  MEMB      25              0.0000000000
      2918        25  OSM       H16S            3.0031616774       22.8012206545        4.4410432380  MEMB      25              0.0000000000
      2919        25  OSM       H16T            1.3976583787       22.7781673245        5.3100368950  MEMB      25              0.0000000000
      2920        25  OSM       C17S            1.4985252694       21.7308525075        3.3523558134  MEMB      25              0.0000000000
      2921        25  OSM       H17S            0.6112189396       21.0946684027        3.5579718291  MEMB      25              0.0000000000
      2922        25  OSM       H17T            2.2293842407       21.0627130837        2.8486144698  MEMB      25              0.0000000000
      2923        25  OSM       C18S            1.0052347549       22.9957892948        2.5495183568  MEMB      25              0.0000000000
      2924        25  OSM       H18S            0.5987679075       22.6516495967        1.5744924519  MEMB      25              0.0000000000
      2925        25  OSM       H18T            1.9695996943       23.5429485612        2.4792461009  MEMB      25              0.0000000000
      2926        25  OSM       H18U            0.3053235143       23.6195478977        3.1456473307  MEMB      25              0.0000000000
      2927        25  OSM       C1F            -1.2754729801       19.7605283242       17.5849739335  MEMB      25              0.0000000000
      2928        25  OSM       OF             -1.4868265064       20.6541584776       18.4034968277  MEMB      25              0.0000000000
      2929        25  OSM       C2F            -2.3012238939       19.7803995715       16.5179631470  MEMB      25              0.0000000000
      2930        25  OSM       H2F            -3.3032620542       19.6107548136       16.9668075753  MEMB      25              0.0000000000
      2931        25  OSM       H2G            -2.0221592382       18.9516324565       15.8326974472  MEMB      25              0.0000000000
      2932        25  OSM       C3F            -2.2135670829       21.0179845793       15.6889105335  MEMB      25              0.0000000000
      2933        25  OSM       H3F            -1.1547826374       21.1672576674       15.3872248849  MEMB      25              0.0000000000
      2934        25  OSM       H3G            -2.5400341233       21.8750762678       16.3159144996  MEMB      25              0.0000000000
      2935        25  OSM       C4F            -3.1740020821       20.9349978817       14.4156779981  MEMB      25              0.0000000000
      2936        25  OSM       H4F            -4.2419270739       20.8938649163       14.7192652254  MEMB      25              0.0000000000
      2937        25  OSM       H4G            -2.9842901834       19.9766967580       13.8865377569  MEMB      25              0.0000000000
      2938        25  OSM       C5F            -3.0303483825       22.0355954711       13.2843092767  MEMB      25              0.0000000000
      2939        25  OSM       H5F            -1.9520351823       22.2903065428       13.2025543333  MEMB      25              0.0000000000
      2940        25  OSM       H5G            -3.6081899649       22.9343387753       13.5887439554  MEMB      25              0.0000000000
      2941        25  OSM       C6F            -3.6419602310       21.4248486048       12.0438885036  MEMB      25              0.0000000000
      2942        25  OSM       H6F            -4.7126224279       21.2002299054       12.2376669629  MEMB      25              0.0000000000
      2943        25  OSM       H6G            -3.1237685319       20.5092678590       11.6868026695  MEMB      25              0.0000000000
      2944        25  OSM       C7F            -3.6054109798       22.3945934793       10.7110641876  MEMB      25              0.0000000000
      2945        25  OSM       H7F            -4.1619802761       23.3180173511       10.9790943952  MEMB      25              0.0000000000
      2946        25  OSM       H7G            -4.1420668913       21.9575608002        9.8419707276  MEMB      25              0.0000000000
      2947        25  OSM       C8F            -2.1456877170       22.6443714689       10.2366875909  MEMB      25              0.0000000000
      2948        25  OSM       H8F            -1.5151971495       23.0749593747       11.0437781721  MEMB      25              0.0000000000
      2949        25  OSM       H8G            -2.2392979671       23.5010296788        9.5354771590  MEMB      25              0.0000000000
      2950        25  OSM       C9F            -1.5145454174       21.4357126386        9.6166083471  MEMB      25              0.0000000000
      2951        25  OSM       H9F            -1.0436037351       20.8083225480       10.3877087159  MEMB      25              0.0000000000
      2952        25  OSM       C10F           -1.3981974791       21.1233217817        8.3332618063  MEMB      25              0.0000000000
      2953        25  OSM       H10F           -0.9142083144       20.1670807089        8.0855572850  MEMB      25              0.0000000000
      2954        25  OSM       C11F           -1.7995935356       21.8422969399        7.0529129267  MEMB      25              0.0000000000
      2955        25  OSM       H11F           -0.8893595191       21.7820604921        6.4187467499  MEMB      25              0.0000000000
      2956        25  OSM       H11G           -1.9496779759       22.9402317476        7.1325041610  MEMB      25              0.0000000000
      2957        25  OSM       C12F           -2.9753453795       21.1239245361        6.3592590643  MEMB      25              0.0000000000
      2958        25  OSM       H12F           -3.7741758813       21.0762030975        7.1299171005  MEMB      25              0.0000000000
      2959        25  OSM       H12G           -2.6948384975       20.0690209188        6.1523406025  MEMB      25              0.0000000000
      2960        25  OSM       C13F           -3.3735077687       21.8366230292        5.0838038489  MEMB      25              0.0000000000
      2961        25  OSM       H13F           -3.4143187124       22.9451892664        5.1449274111  MEMB      25              0.0000000000
      2962        25  OSM       H13G           -4.3728974357       21.4745720786        4.7606013529  MEMB      25              0.0000000000
      2963        25  OSM       C14F           -2.4495158671       21.4629389162        3.9735824985  MEMB      25              0.0000000000
      2964        25  OSM       H14F           -2.5224053296       20.3689191858        3.7943376653  MEMB      25              0.0000000000
      2965        25  OSM       H14G           -1.4608990313       21.8633843829        4.2843912272  MEMB      25              0.0000000000
      2966        25  OSM       C15F           -2.8343020574       22.0694327324        2.5930969836  MEMB      25              0.0000000000
      2967        25  OSM       H15F           -2.6512678817       23.1626594421        2.6684284485  MEMB      25              0.0000000000
      2968        25  OSM       H15G           -3.8911266590       21.8481900815        2.3313819704  MEMB      25              0.0000000000
      2969        25  OSM       C16F           -2.0037492962       21.4785787888        1.4119291875  MEMB      25              0.0000000000
      2970        25  OSM       H16F           -0.9370788144       21.4691489594        1.7224868276  MEMB      25              0.0000000000
      2971        25  OSM       H16G           -2.2776754902       22.0883385478        0.5245290194  MEMB      25              0.0000000000
      2972        25  OSM       C17F           -2.3251305223       20.0695456894        1.0283838877  MEMB      25              0.0000000000
      2973        25  OSM       H17F           -3.4305761051       20.0454408237        0.9200772835  MEMB      25              0.0000000000
      2974        25  OSM       H17G           -2.2146716512       19.4191157135        1.9222846041  MEMB      25              0.0000000000
      2975        25  OSM       C18F           -1.6376549501       19.5585152311       -0.2752252554  MEMB      25              0.0000000000
      2976        25  OSM       H18F           -1.8615645816       20.2091317388       -1.1475117359  MEMB      25              0.0000000000
      2977        25  OSM       H18G           -1.8475973653       18.4852679671       -0.4711466569  MEMB      25              0.0000000000
      2978        25  OSM       H18H           -0.5399603771       19.7194590036       -0.3342548462  MEMB      25              0.0000000000
      2979        26  OSM       N             -18.8954024517       -7.1527836370       22.4056402793  MEMB      26              0.0000000000
      2980        26  OSM       C15           -18.0431988212       -5.9648476944       22.0029959176  MEMB      26              0.0000000000
      2981        26  OSM       H15A          -17.1187220787       -6.3072656854       21.5619824697  MEMB      26              0.0000000000
      2982        26  OSM       H15B          -17.7790709631       -5.4874145965       22.9350334094  MEMB      26              0.0000000000
      2983        26  OSM       H15C          -18.6619634757       -5.3213267939       21.3952041387  MEMB      26              0.0000000000
      2984        26  OSM       C14           -19.0558277374       -8.1924680725       21.3309494193  MEMB      26              0.0000000000
      2985        26  OSM       H14A          -18.1327386051       -8.6854535682       21.0639816121  MEMB      26              0.0000000000
      2986        26  OSM       H14B          -19.4180141114       -7.7149516426       20.4325068252  MEMB      26              0.0000000000
      2987        26  OSM       H14C          -19.7279438069       -8.9803731265       21.6373244028  MEMB      26              0.0000000000
      2988        26  OSM       C13           -18.3244122801       -7.8382614136       23.6107751386  MEMB      26              0.0000000000
      2989        26  OSM       H13A          -17.6052844303       -8.5976261036       23.3412938827  MEMB      26              0.0000000000
      2990        26  OSM       H13B          -19.0872543605       -8.2957565062       24.2232865923  MEMB      26              0.0000000000
      2991        26  OSM       H13C          -17.8313102420       -7.0623130602       24.1774799834  MEMB      26              0.0000000000
      2992        26  OSM       C12           -20.3344095113       -6.7926202112       22.8521729766  MEMB      26              0.0000000000
      2993        26  OSM       H12A          -20.2462152177       -6.3047668695       23.8116627669  MEMB      26              0.0000000000
      2994        26  OSM       H12B          -20.9086550379       -7.6383265908       23.2006308655  MEMB      26              0.0000000000
      2995        26  OSM       C11           -21.1136860501       -5.8730182550       21.7983320513  MEMB      26              0.0000000000
      2996        26  OSM       H11A          -20.6779844943       -4.8511106880       21.8121210915  MEMB      26              0.0000000000
      2997        26  OSM       H11B          -22.1729705841       -5.8044199036       22.1262522854  MEMB      26              0.0000000000
      2998        26  OSM       P             -22.0385623321       -6.1096744785       19.3693430646  MEMB      26              0.0000000000
      2999        26  OSM       O13           -23.2785147332       -6.6171878419       20.0772697603  MEMB      26              0.0000000000
      3000        26  OSM       O14           -22.0913735952       -4.6748530462       19.0040207568  MEMB      26              0.0000000000
      3001        26  OSM       O11           -21.7569474335       -6.9815668886       18.1072449242  MEMB      26              0.0000000000
      3002        26  OSM       O12           -20.9181899580       -6.3562434643       20.4412557119  MEMB      26              0.0000000000
      3003        26  OSM       C1S           -20.4714044738       -6.9138710137       17.4763214666  MEMB      26              0.0000000000
      3004        26  OSM       H1S           -19.7921052751       -7.4372752409       18.1826653348  MEMB      26              0.0000000000
      3005        26  OSM       H1T           -20.1502558724       -5.8520511837       17.4153025770  MEMB      26              0.0000000000
      3006        26  OSM       NF            -21.5291099581       -6.9938095846       15.2557227600  MEMB      26              0.0000000000
      3007        26  OSM       HNF           -22.3406102362       -7.5640451011       15.1541958550  MEMB      26              0.0000000000
      3008        26  OSM       C2S           -20.5412425569       -7.6107934467       16.1611638844  MEMB      26              0.0000000000
      3009        26  OSM       H2S           -19.5519960490       -7.5226464662       15.6632255957  MEMB      26              0.0000000000
      3010        26  OSM       C3S           -20.8623737918       -9.0641870954       16.3861735522  MEMB      26              0.0000000000
      3011        26  OSM       H3S           -21.8995246837       -9.1707608336       16.7699456336  MEMB      26              0.0000000000
      3012        26  OSM       O3            -19.9578919518       -9.7167105757       17.3368219006  MEMB      26              0.0000000000
      3013        26  OSM       HO3           -19.3467000209       -9.0359650512       17.6277343077  MEMB      26              0.0000000000
      3014        26  OSM       C4S           -20.8876246773       -9.7321677211       15.0590037003  MEMB      26              0.0000000000
      3015        26  OSM       H4S           -21.9205095244       -9.9279510329       14.7352484360  MEMB      26              0.0000000000
      3016        26  OSM       C5S           -19.9564134204      -10.2841282239       14.3328052762  MEMB      26              0.0000000000
      3017        26  OSM       H5S           -18.9472888619      -10.3300196134       14.7681918579  MEMB      26              0.0000000000
      3018        26  OSM       C6S           -20.1225283746      -10.9475624771       12.9297641521  MEMB      26              0.0000000000
      3019        26  OSM       H6S           -20.3240438468      -12.0226361397       13.1245173817  MEMB      26              0.0000000000
      3020        26  OSM       H6T           -19.1262139767      -10.9485438434       12.4381575504  MEMB      26              0.0000000000
      3021        26  OSM       C7S           -21.0750194445      -10.2863291623       11.9383537313  MEMB      26              0.0000000000
      3022        26  OSM       H7S           -22.1298328876      -10.2463274844       12.2848926985  MEMB      26              0.0000000000
      3023        26  OSM       H7T           -21.0762771286      -10.9332917970       11.0351599505  MEMB      26              0.0000000000
      3024        26  OSM       C8S           -20.6532786506       -8.8202259061       11.5313987547  MEMB      26              0.0000000000
      3025        26  OSM       H8S           -20.6346470602       -8.0823711329       12.3617873896  MEMB      26              0.0000000000
      3026        26  OSM       H8T           -21.5146225066       -8.4128430471       10.9600437400  MEMB      26              0.0000000000
      3027        26  OSM       C9S           -19.2731836393       -8.6553937210       10.8411916814  MEMB      26              0.0000000000
      3028        26  OSM       H9S           -19.1084300786       -9.6152250450       10.3064945094  MEMB      26              0.0000000000
      3029        26  OSM       H9T           -18.4859681340       -8.5186277877       11.6131421235  MEMB      26              0.0000000000
      3030        26  OSM       C10S          -19.3911684676       -7.4947646778        9.7831286765  MEMB      26              0.0000000000
      3031        26  OSM       H10S          -19.8393440560       -6.6135159759       10.2899423812  MEMB      26              0.0000000000
      3032        26  OSM       H10T          -20.1407072348       -7.7847726645        9.0160512007  MEMB      26              0.0000000000
      3033        26  OSM       C11S          -18.0762043922       -7.1957616253        9.0047585294  MEMB      26              0.0000000000
      3034        26  OSM       H11S          -17.6802842535       -8.1236650552        8.5393951109  MEMB      26              0.0000000000
      3035        26  OSM       H11T          -17.2696382671       -6.9835161603        9.7387368247  MEMB      26              0.0000000000
      3036        26  OSM       C12S          -18.2031200449       -6.1224769291        7.9482063267  MEMB      26              0.0000000000
      3037        26  OSM       H12S          -17.1726864230       -5.8482891582        7.6361986717  MEMB      26              0.0000000000
      3038        26  OSM       H12T          -18.6670599613       -5.2375023466        8.4339023379  MEMB      26              0.0000000000
      3039        26  OSM       C13S          -19.0588026930       -6.4910206707        6.6988652693  MEMB      26              0.0000000000
      3040        26  OSM       H13S          -20.1489354647       -6.5636652846        6.9004951838  MEMB      26              0.0000000000
      3041        26  OSM       H13T          -18.8711537704       -7.5449811213        6.4017522422  MEMB      26              0.0000000000
      3042        26  OSM       C14S          -19.0216873293       -5.5957941629        5.4785764535  MEMB      26              0.0000000000
      3043        26  OSM       H14S          -19.5710528971       -6.1286546853        4.6732322643  MEMB      26              0.0000000000
      3044        26  OSM       H14T          -17.9889729025       -5.4901484154        5.0827717046  MEMB      26              0.0000000000
      3045        26  OSM       C15S          -19.6611921586       -4.1973323771        5.6260405882  MEMB      26              0.0000000000
      3046        26  OSM       H15S          -19.0244275414       -3.5638826351        6.2799471063  MEMB      26              0.0000000000
      3047        26  OSM       H15T          -20.6411074364       -4.3036836438        6.1386580941  MEMB      26              0.0000000000
      3048        26  OSM       C16S          -20.0016975273       -3.5180947636        4.2838434684  MEMB      26              0.0000000000
      3049        26  OSM       H16S          -20.7367800432       -2.7265741374        4.5435922730  MEMB      26              0.0000000000
      3050        26  OSM       H16T          -20.5584489000       -4.1736861293        3.5806025522  MEMB      26              0.0000000000
      3051        26  OSM       C17S          -18.7894307474       -2.9016799207        3.5515601469  MEMB      26              0.0000000000
      3052        26  OSM       H17S          -17.9862675453       -3.6421973325        3.3493624432  MEMB      26              0.0000000000
      3053        26  OSM       H17T          -18.4339769243       -2.1450312163        4.2833094538  MEMB      26              0.0000000000
      3054        26  OSM       C18S          -19.2247548441       -2.1627012883        2.2849536926  MEMB      26              0.0000000000
      3055        26  OSM       H18S          -18.4513454155       -1.6460658927        1.6772967872  MEMB      26              0.0000000000
      3056        26  OSM       H18T          -19.8365970155       -1.2636086991        2.5121134369  MEMB      26              0.0000000000
      3057        26  OSM       H18U          -19.7413907424       -2.8006591902        1.5363416200  MEMB      26              0.0000000000
      3058        26  OSM       C1F           -21.3126994199       -5.7731882369       14.6843830468  MEMB      26              0.0000000000
      3059        26  OSM       OF            -20.2844658180       -5.0646696534       14.8722337002  MEMB      26              0.0000000000
      3060        26  OSM       C2F           -22.3936597330       -5.1770034066       13.9147505213  MEMB      26              0.0000000000
      3061        26  OSM       H2F           -22.1093617700       -4.1055830784       13.8402240867  MEMB      26              0.0000000000
      3062        26  OSM       H2G           -23.3556443611       -5.2439335686       14.4664993354  MEMB      26              0.0000000000
      3063        26  OSM       C3F           -22.3611930602       -5.6490109592       12.4497412914  MEMB      26              0.0000000000
      3064        26  OSM       H3F           -22.6753475455       -6.7144385763       12.4719211941  MEMB      26              0.0000000000
      3065        26  OSM       H3G           -21.3707942360       -5.4243394304       11.9992367724  MEMB      26              0.0000000000
      3066        26  OSM       C4F           -23.3542892813       -4.8357765024       11.5848017885  MEMB      26              0.0000000000
      3067        26  OSM       H4F           -23.2004679933       -3.7398752061       11.6830900846  MEMB      26              0.0000000000
      3068        26  OSM       H4G           -24.3804109729       -5.1299452242       11.8927957836  MEMB      26              0.0000000000
      3069        26  OSM       C5F           -23.2802596521       -5.0689702667       10.0636642773  MEMB      26              0.0000000000
      3070        26  OSM       H5F           -22.1985022652       -4.8976620967        9.8771824789  MEMB      26              0.0000000000
      3071        26  OSM       H5G           -23.8176635145       -4.2548291757        9.5319762450  MEMB      26              0.0000000000
      3072        26  OSM       C6F           -23.7092913145       -6.4935535782        9.6476831964  MEMB      26              0.0000000000
      3073        26  OSM       H6F           -24.7126898702       -6.7146867246       10.0703087255  MEMB      26              0.0000000000
      3074        26  OSM       H6G           -22.9749117823       -7.2031141700       10.0853254722  MEMB      26              0.0000000000
      3075        26  OSM       C7F           -23.7875892909       -6.7674063795        8.1197219613  MEMB      26              0.0000000000
      3076        26  OSM       H7F           -22.9126485450       -6.4536979248        7.5111283062  MEMB      26              0.0000000000
      3077        26  OSM       H7G           -24.7373261917       -6.2471139101        7.8714949749  MEMB      26              0.0000000000
      3078        26  OSM       C8F           -23.9605335458       -8.2116391021        7.7394160065  MEMB      26              0.0000000000
      3079        26  OSM       H8F           -24.4409807720       -8.1896478959        6.7379131618  MEMB      26              0.0000000000
      3080        26  OSM       H8G           -24.6822582959       -8.5701724856        8.5041964937  MEMB      26              0.0000000000
      3081        26  OSM       C9F           -22.7437597526       -9.0851586742        7.8014630284  MEMB      26              0.0000000000
      3082        26  OSM       H9F           -22.5516517492       -9.6186241914        8.7440705145  MEMB      26              0.0000000000
      3083        26  OSM       C10F          -21.8969757921       -9.2169137059        6.7214381003  MEMB      26              0.0000000000
      3084        26  OSM       H10F          -20.9638789586       -9.7783858101        6.8766137870  MEMB      26              0.0000000000
      3085        26  OSM       C11F          -22.0003399436       -8.5893652415        5.3107735086  MEMB      26              0.0000000000
      3086        26  OSM       H11F          -21.1458240370       -7.9157406714        5.0863774517  MEMB      26              0.0000000000
      3087        26  OSM       H11G          -22.9699372351       -8.0769627461        5.1328801767  MEMB      26              0.0000000000
      3088        26  OSM       C12F          -22.0147126986       -9.6609957564        4.2162107905  MEMB      26              0.0000000000
      3089        26  OSM       H12F          -22.3692429482       -9.2635092485        3.2412045801  MEMB      26              0.0000000000
      3090        26  OSM       H12G          -22.8322900178      -10.3701541494        4.4671736101  MEMB      26              0.0000000000
      3091        26  OSM       C13F          -20.7347446328      -10.4210033229        3.9578665893  MEMB      26              0.0000000000
      3092        26  OSM       H13F          -20.8774666877      -11.1242577548        3.1097016048  MEMB      26              0.0000000000
      3093        26  OSM       H13G          -20.4811386974      -10.9971006507        4.8733526886  MEMB      26              0.0000000000
      3094        26  OSM       C14F          -19.3700503656       -9.6250494971        3.7558288209  MEMB      26              0.0000000000
      3095        26  OSM       H14F          -18.5488043744      -10.3726022925        3.7235630959  MEMB      26              0.0000000000
      3096        26  OSM       H14G          -19.2437465374       -9.0584073991        4.7030798858  MEMB      26              0.0000000000
      3097        26  OSM       C15F          -19.4096942177       -8.7798085301        2.4727293698  MEMB      26              0.0000000000
      3098        26  OSM       H15F          -20.2676954337       -8.0743263599        2.4939447630  MEMB      26              0.0000000000
      3099        26  OSM       H15G          -19.5293611433       -9.4013405793        1.5596594898  MEMB      26              0.0000000000
      3100        26  OSM       C16F          -18.1275089921       -7.8619553594        2.2723071582  MEMB      26              0.0000000000
      3101        26  OSM       H16F          -17.3466170105       -8.6404965964        2.4079612906  MEMB      26              0.0000000000
      3102        26  OSM       H16G          -18.0861496162       -7.0043626928        2.9773927100  MEMB      26              0.0000000000
      3103        26  OSM       C17F          -17.9876858154       -7.2449174361        0.8240833493  MEMB      26              0.0000000000
      3104        26  OSM       H17F          -18.9752728608       -6.8322225313        0.5262985059  MEMB      26              0.0000000000
      3105        26  OSM       H17G          -17.6623177773       -8.1012173921        0.1954276178  MEMB      26              0.0000000000
      3106        26  OSM       C18F          -16.9006798431       -6.1999484757        0.9090632216  MEMB      26              0.0000000000
      3107        26  OSM       H18F          -17.1166079945       -5.4712233269        1.7194044849  MEMB      26              0.0000000000
      3108        26  OSM       H18G          -16.7899758951       -5.6684154532       -0.0602348167  MEMB      26              0.0000000000
      3109        26  OSM       H18H          -16.0094982801       -6.7791974880        1.2324628163  MEMB      26              0.0000000000
      3110        27  SOPE      N              13.9666183692       15.6538886687       23.9511794277  MEMB      27              0.0000000000
      3111        27  SOPE      HN1            13.4202916462       16.2848823730       24.5716423478  MEMB      27              0.0000000000
      3112        27  SOPE      HN2            13.7519200374       14.6559847176       24.1504085661  MEMB      27              0.0000000000
      3113        27  SOPE      HN3            14.9720979533       15.9188215531       23.9306500282  MEMB      27              0.0000000000
      3114        27  SOPE      C12            13.3246731794       15.9922664528       22.7149675170  MEMB      27              0.0000000000
      3115        27  SOPE      H12A           13.2797163296       17.0932967372       22.5734321615  MEMB      27              0.0000000000
      3116        27  SOPE      H12B           12.2975212797       15.5788559196       22.8064647561  MEMB      27              0.0000000000
      3117        27  SOPE      C11            13.9614770176       15.2823619510       21.5301432922  MEMB      27              0.0000000000
      3118        27  SOPE      H11A           13.3001360802       15.2308925565       20.6389081961  MEMB      27              0.0000000000
      3119        27  SOPE      H11B           14.1483248996       14.1985443864       21.6874593058  MEMB      27              0.0000000000
      3120        27  SOPE      P              15.2991591826       16.9385162851       19.9433370473  MEMB      27              0.0000000000
      3121        27  SOPE      O13            16.7010953412       17.3797506277       19.8170239579  MEMB      27              0.0000000000
      3122        27  SOPE      O14            14.2800829713       18.0138553452       20.1913054703  MEMB      27              0.0000000000
      3123        27  SOPE      O12            15.1845219115       15.9486004610       21.1785878097  MEMB      27              0.0000000000
      3124        27  SOPE      O11            14.9138216272       16.1282538082       18.6734554780  MEMB      27              0.0000000000
      3125        27  SOPE      C1             15.5193855879       14.8939452372       18.2786806822  MEMB      27              0.0000000000
      3126        27  SOPE      HA             15.4277260297       14.1077814683       19.0583383334  MEMB      27              0.0000000000
      3127        27  SOPE      HB             16.5773561203       15.1319318905       18.0370574937  MEMB      27              0.0000000000
      3128        27  SOPE      C2             14.8828366694       14.2931190459       16.9628109630  MEMB      27              0.0000000000
      3129        27  SOPE      HS             15.4099702612       13.3315747022       16.7842510544  MEMB      27              0.0000000000
      3130        27  SOPE      O21            14.9695895333       15.2008026692       15.8678524375  MEMB      27              0.0000000000
      3131        27  SOPE      C21            16.1366279454       15.2667139117       15.2134571222  MEMB      27              0.0000000000
      3132        27  SOPE      O22            17.1115905758       14.5801014599       15.3586550016  MEMB      27              0.0000000000
      3133        27  SOPE      C22            16.0629972291       16.3876180833       14.1401806267  MEMB      27              0.0000000000
      3134        27  SOPE      H2R            16.2241780646       17.3529864757       14.6659234522  MEMB      27              0.0000000000
      3135        27  SOPE      H2S            15.0315388472       16.3791479336       13.7274545976  MEMB      27              0.0000000000
      3136        27  SOPE      C3             13.3782626546       13.9450314120       17.1913474484  MEMB      27              0.0000000000
      3137        27  SOPE      HX             13.3568196397       13.3306553007       18.1167680096  MEMB      27              0.0000000000
      3138        27  SOPE      HY             12.9292861367       13.3743668606       16.3504651687  MEMB      27              0.0000000000
      3139        27  SOPE      O31            12.6307144916       15.1753792974       17.4817907779  MEMB      27              0.0000000000
      3140        27  SOPE      C31            11.6828074193       15.5580194344       16.7373056304  MEMB      27              0.0000000000
      3141        27  SOPE      O32            11.1536476296       14.8921216819       15.8897524525  MEMB      27              0.0000000000
      3142        27  SOPE      C32            11.2186380706       17.0050532213       17.1035286534  MEMB      27              0.0000000000
      3143        27  SOPE      H2X            11.9467503639       17.6131221111       17.6818243593  MEMB      27              0.0000000000
      3144        27  SOPE      H2Y            10.3227032858       16.8609893987       17.7445180403  MEMB      27              0.0000000000
      3145        27  SOPE      C23            17.0968755310       16.1885760898       13.0473210230  MEMB      27              0.0000000000
      3146        27  SOPE      H3R            16.6779915967       15.4234828260       12.3592153764  MEMB      27              0.0000000000
      3147        27  SOPE      H3S            18.0605860701       15.8520698775       13.4858942892  MEMB      27              0.0000000000
      3148        27  SOPE      C24            17.4622850162       17.4536090817       12.2232345008  MEMB      27              0.0000000000
      3149        27  SOPE      H4R            16.5901527139       17.7007444960       11.5808712304  MEMB      27              0.0000000000
      3150        27  SOPE      H4S            17.5951891842       18.3920011171       12.8029563991  MEMB      27              0.0000000000
      3151        27  SOPE      C25            18.7418760135       17.3529395511       11.3957626161  MEMB      27              0.0000000000
      3152        27  SOPE      H5R            18.9422386657       18.3434106715       10.9340894238  MEMB      27              0.0000000000
      3153        27  SOPE      H5S            19.5692261779       17.1373151560       12.1052128671  MEMB      27              0.0000000000
      3154        27  SOPE      C26            18.7820962457       16.1960114297       10.3983297595  MEMB      27              0.0000000000
      3155        27  SOPE      H6R            19.8306068661       15.9831031336       10.0989706976  MEMB      27              0.0000000000
      3156        27  SOPE      H6S            18.3426487976       15.2407860577       10.7571501452  MEMB      27              0.0000000000
      3157        27  SOPE      C27            17.8821286518       16.3842416581        9.1354232105  MEMB      27              0.0000000000
      3158        27  SOPE      H7R            17.6370380721       15.3510844084        8.8085629045  MEMB      27              0.0000000000
      3159        27  SOPE      H7S            16.9158069878       16.8183973913        9.4701649807  MEMB      27              0.0000000000
      3160        27  SOPE      C28            18.4124385463       17.3163790906        8.0328999694  MEMB      27              0.0000000000
      3161        27  SOPE      H8R            17.5704516430       17.6371633906        7.3829181494  MEMB      27              0.0000000000
      3162        27  SOPE      H8S            18.9149765609       18.1860239331        8.5077626943  MEMB      27              0.0000000000
      3163        27  SOPE      C29            19.4450089823       16.5565220350        7.2013877317  MEMB      27              0.0000000000
      3164        27  SOPE      H91            20.4426858670       16.7035843178        7.6407207644  MEMB      27              0.0000000000
      3165        27  SOPE      C210           19.2740223999       15.7890155299        6.1035298241  MEMB      27              0.0000000000
      3166        27  SOPE      H101           20.1306332092       15.3826288725        5.5457954285  MEMB      27              0.0000000000
      3167        27  SOPE      C211           17.9418844603       15.4648936289        5.4148738828  MEMB      27              0.0000000000
      3168        27  SOPE      H11R           17.0691567352       16.0004450272        5.8459785313  MEMB      27              0.0000000000
      3169        27  SOPE      H11S           17.7173257020       14.3769129624        5.4010021443  MEMB      27              0.0000000000
      3170        27  SOPE      C212           18.0284666826       15.7517521073        3.8919470874  MEMB      27              0.0000000000
      3171        27  SOPE      H12R           17.0910553519       15.4604614523        3.3716290410  MEMB      27              0.0000000000
      3172        27  SOPE      H12S           18.8466706038       15.1378804229        3.4583290832  MEMB      27              0.0000000000
      3173        27  SOPE      C213           18.1631848670       17.2159223939        3.4872305280  MEMB      27              0.0000000000
      3174        27  SOPE      H13R           18.9886953456       17.7995381587        3.9479324454  MEMB      27              0.0000000000
      3175        27  SOPE      H13S           17.2986128359       17.8079813786        3.8564220360  MEMB      27              0.0000000000
      3176        27  SOPE      C214           18.1642364215       17.3910434079        2.0335851793  MEMB      27              0.0000000000
      3177        27  SOPE      H14R           17.3441574513       16.7495321797        1.6459587078  MEMB      27              0.0000000000
      3178        27  SOPE      H14S           19.1590730534       16.9856702076        1.7502253194  MEMB      27              0.0000000000
      3179        27  SOPE      C215           17.9860803102       18.7533326509        1.4521955896  MEMB      27              0.0000000000
      3180        27  SOPE      H15R           18.7830454145       19.3825792704        1.9029914112  MEMB      27              0.0000000000
      3181        27  SOPE      H15S           17.0612123495       19.2704523594        1.7861524368  MEMB      27              0.0000000000
      3182        27  SOPE      C216           17.9916464201       18.7835276378       -0.1395969556  MEMB      27              0.0000000000
      3183        27  SOPE      H16R           17.1044026091       18.1950007480       -0.4570176068  MEMB      27              0.0000000000
      3184        27  SOPE      H16S           18.8817762338       18.3001427626       -0.5960281012  MEMB      27              0.0000000000
      3185        27  SOPE      C217           17.8845449840       20.1674009032       -0.6855864020  MEMB      27              0.0000000000
      3186        27  SOPE      H17R           18.6813701340       20.8193387959       -0.2680142873  MEMB      27              0.0000000000
      3187        27  SOPE      H17S           16.9297895038       20.6055384809       -0.3239269876  MEMB      27              0.0000000000
      3188        27  SOPE      C218           17.8342737131       20.2352134336       -2.2835516594  MEMB      27              0.0000000000
      3189        27  SOPE      H18R           18.2768886891       21.2043500862       -2.5984899873  MEMB      27              0.0000000000
      3190        27  SOPE      H18S           16.7916718932       20.1300368722       -2.6526588173  MEMB      27              0.0000000000
      3191        27  SOPE      H18T           18.4547341187       19.3922249032       -2.6560023600  MEMB      27              0.0000000000
      3192        27  SOPE      C33            10.7865860182       17.6878331734       15.7396776019  MEMB      27              0.0000000000
      3193        27  SOPE      H3X            10.4257010561       18.6678532149       16.1186816435  MEMB      27              0.0000000000
      3194        27  SOPE      H3Y             9.9003058154       17.1680060418       15.3170578984  MEMB      27              0.0000000000
      3195        27  SOPE      C34            11.9946597381       17.9740528537       14.7750340167  MEMB      27              0.0000000000
      3196        27  SOPE      H4X            12.3369225707       16.9893825319       14.3908441362  MEMB      27              0.0000000000
      3197        27  SOPE      H4Y            12.6814472370       18.4886903576       15.4805779222  MEMB      27              0.0000000000
      3198        27  SOPE      C35            11.7123075644       18.8654716659       13.5927136710  MEMB      27              0.0000000000
      3199        27  SOPE      H5X            11.4412338315       19.9168685293       13.8280952041  MEMB      27              0.0000000000
      3200        27  SOPE      H5Y            10.7572110892       18.5617061369       13.1132999346  MEMB      27              0.0000000000
      3201        27  SOPE      C36            12.8224325122       18.9849831237       12.5731769678  MEMB      27              0.0000000000
      3202        27  SOPE      H6X            13.1674585521       17.9592146981       12.3220253342  MEMB      27              0.0000000000
      3203        27  SOPE      H6Y            13.6607930035       19.5596853785       13.0217191326  MEMB      27              0.0000000000
      3204        27  SOPE      C37            12.2474033908       19.5122186767       11.1899073604  MEMB      27              0.0000000000
      3205        27  SOPE      H7X            11.8871913528       20.5606299834       11.2634083933  MEMB      27              0.0000000000
      3206        27  SOPE      H7Y            11.3811507380       18.8648510656       10.9352658807  MEMB      27              0.0000000000
      3207        27  SOPE      C38            13.3341677295       19.3744945832       10.0598600973  MEMB      27              0.0000000000
      3208        27  SOPE      H8X            13.6888914794       18.3252330276        9.9730136716  MEMB      27              0.0000000000
      3209        27  SOPE      H8Y            14.1699887953       20.0773517303       10.2641039530  MEMB      27              0.0000000000
      3210        27  SOPE      C39            12.8527715420       19.7663940736        8.6812354842  MEMB      27              0.0000000000
      3211        27  SOPE      H9X            12.6391628694       20.8454459999        8.5252260730  MEMB      27              0.0000000000
      3212        27  SOPE      H9Y            11.9541605585       19.1440982268        8.4823211940  MEMB      27              0.0000000000
      3213        27  SOPE      C310           13.8925787942       19.4108706711        7.6077871507  MEMB      27              0.0000000000
      3214        27  SOPE      H10X           14.0647228052       18.3177485954        7.7066372338  MEMB      27              0.0000000000
      3215        27  SOPE      H10Y           14.8547250674       19.9034606073        7.8645951646  MEMB      27              0.0000000000
      3216        27  SOPE      C311           13.4920563456       19.7193804951        6.1632056141  MEMB      27              0.0000000000
      3217        27  SOPE      H11X           13.6375821880       20.8149511516        6.0497664011  MEMB      27              0.0000000000
      3218        27  SOPE      H11Y           12.4541642544       19.4376875471        5.8843688195  MEMB      27              0.0000000000
      3219        27  SOPE      C312           14.5234532378       19.2122736920        5.1130435657  MEMB      27              0.0000000000
      3220        27  SOPE      H12X           14.6384769951       18.1080524345        5.1553019087  MEMB      27              0.0000000000
      3221        27  SOPE      H12Y           15.5194914327       19.4576225019        5.5396964041  MEMB      27              0.0000000000
      3222        27  SOPE      C313           14.2194740284       19.7181596417        3.6622528104  MEMB      27              0.0000000000
      3223        27  SOPE      H13X           15.1306960937       19.4258134489        3.0978688328  MEMB      27              0.0000000000
      3224        27  SOPE      H13Y           14.2196791392       20.8284015799        3.7032854261  MEMB      27              0.0000000000
      3225        27  SOPE      C314           13.0377904096       19.1642044704        2.8971031068  MEMB      27              0.0000000000
      3226        27  SOPE      H14X           12.0542717040       19.5582344387        3.2313967054  MEMB      27              0.0000000000
      3227        27  SOPE      H14Y           13.0913301247       18.0587282333        2.9939367288  MEMB      27              0.0000000000
      3228        27  SOPE      C315           13.1518316008       19.5790628344        1.3655067922  MEMB      27              0.0000000000
      3229        27  SOPE      H15X           13.2071530658       20.6871501971        1.3071715151  MEMB      27              0.0000000000
      3230        27  SOPE      H15Y           12.1921760946       19.3389389454        0.8598164039  MEMB      27              0.0000000000
      3231        27  SOPE      C316           14.2067191953       18.8821799778        0.5705246840  MEMB      27              0.0000000000
      3232        27  SOPE      H16X           14.1299863956       17.7860811197        0.7348436144  MEMB      27              0.0000000000
      3233        27  SOPE      H16Y           15.2522258211       19.1750107564        0.8060813469  MEMB      27              0.0000000000
      3234        27  SOPE      C317           13.9385052150       19.0613772718       -0.9670652729  MEMB      27              0.0000000000
      3235        27  SOPE      H17X           12.9652396311       18.5742775164       -1.1902445613  MEMB      27              0.0000000000
      3236        27  SOPE      H17Y           14.7070961367       18.3868025815       -1.4012741917  MEMB      27              0.0000000000
      3237        27  SOPE      C318           13.9898124445       20.5561192621       -1.3150883949  MEMB      27              0.0000000000
      3238        27  SOPE      H18X           13.9340537242       20.6628114278       -2.4195479365  MEMB      27              0.0000000000
      3239        27  SOPE      H18Y           14.9249676746       21.0357885055       -0.9549172238  MEMB      27              0.0000000000
      3240        27  SOPE      H18Z           13.2155473578       21.1864840775       -0.8277755388  MEMB      27              0.0000000000
      3241        28  OSM       N             -21.4464115309        3.7733982011       21.7282165879  MEMB      28              0.0000000000
      3242        28  OSM       C15           -21.5607340178        2.2495082687       21.5521943098  MEMB      28              0.0000000000
      3243        28  OSM       H15A          -20.5972499586        1.8366434188       21.8122733639  MEMB      28              0.0000000000
      3244        28  OSM       H15B          -21.7344512538        2.0630811681       20.5026862425  MEMB      28              0.0000000000
      3245        28  OSM       H15C          -22.3442941119        1.8410602480       22.1731641965  MEMB      28              0.0000000000
      3246        28  OSM       C14           -22.7234971432        4.4858792543       21.3760907364  MEMB      28              0.0000000000
      3247        28  OSM       H14A          -23.2449659071        4.2259676081       20.4667412796  MEMB      28              0.0000000000
      3248        28  OSM       H14B          -22.5202981625        5.5320820879       21.2012486644  MEMB      28              0.0000000000
      3249        28  OSM       H14C          -23.4468427489        4.3852353770       22.1717300410  MEMB      28              0.0000000000
      3250        28  OSM       C13           -21.0386279266        4.0607341553       23.1491928777  MEMB      28              0.0000000000
      3251        28  OSM       H13A          -21.9397043886        4.2005453055       23.7279105459  MEMB      28              0.0000000000
      3252        28  OSM       H13B          -20.5869003355        5.0301784581       23.2992590700  MEMB      28              0.0000000000
      3253        28  OSM       H13C          -20.3636536717        3.3491240839       23.6013221880  MEMB      28              0.0000000000
      3254        28  OSM       C12           -20.3043826878        4.2588983411       20.8458640465  MEMB      28              0.0000000000
      3255        28  OSM       H12A          -20.5937572372        4.1218238035       19.8144218493  MEMB      28              0.0000000000
      3256        28  OSM       H12B          -19.4772290786        3.6107311290       21.0950554101  MEMB      28              0.0000000000
      3257        28  OSM       C11           -19.8847810258        5.8143967276       20.9201252860  MEMB      28              0.0000000000
      3258        28  OSM       H11A          -19.3490651654        6.0828410453       19.9845681330  MEMB      28              0.0000000000
      3259        28  OSM       H11B          -19.1430045674        5.8101243070       21.7472107822  MEMB      28              0.0000000000
      3260        28  OSM       P             -21.6148873566        7.8094402678       20.2814260516  MEMB      28              0.0000000000
      3261        28  OSM       O13           -22.9298022910        7.3309853296       19.9479820002  MEMB      28              0.0000000000
      3262        28  OSM       O14           -21.4177042029        9.1072463413       21.0610531880  MEMB      28              0.0000000000
      3263        28  OSM       O11           -20.7081904855        7.9797229465       18.8985199713  MEMB      28              0.0000000000
      3264        28  OSM       O12           -20.8706819353        6.7675851610       21.2393349436  MEMB      28              0.0000000000
      3265        28  OSM       C1S           -21.2599699615        7.1219538875       17.8555983324  MEMB      28              0.0000000000
      3266        28  OSM       H1S           -22.3417677677        7.3407447883       17.7284563434  MEMB      28              0.0000000000
      3267        28  OSM       H1T           -21.0930006495        6.0367998835       18.0255480890  MEMB      28              0.0000000000
      3268        28  OSM       NF            -21.6025427023        6.6917036273       15.4969990847  MEMB      28              0.0000000000
      3269        28  OSM       HNF           -21.1220432588        5.9786625415       14.9923191101  MEMB      28              0.0000000000
      3270        28  OSM       C2S           -20.7196017704        7.3617885692       16.4196738489  MEMB      28              0.0000000000
      3271        28  OSM       H2S           -20.7069752602        8.4414738350       16.1580606539  MEMB      28              0.0000000000
      3272        28  OSM       C3S           -19.3215089542        6.8809699311       16.3293698480  MEMB      28              0.0000000000
      3273        28  OSM       H3S           -19.3445720561        5.8351424281       16.7035808369  MEMB      28              0.0000000000
      3274        28  OSM       O3            -18.4962824556        7.6046561050       17.2670650176  MEMB      28              0.0000000000
      3275        28  OSM       HO3           -19.1505521178        8.0732289214       17.7904870759  MEMB      28              0.0000000000
      3276        28  OSM       C4S           -18.8123278105        7.0536245904       14.8975414893  MEMB      28              0.0000000000
      3277        28  OSM       H4S           -19.0759489492        7.9087369811       14.2577865374  MEMB      28              0.0000000000
      3278        28  OSM       C5S           -18.1030574919        6.2254871800       14.1320006469  MEMB      28              0.0000000000
      3279        28  OSM       H5S           -17.6879528554        5.2871245858       14.5284395272  MEMB      28              0.0000000000
      3280        28  OSM       C6S           -17.7036481865        6.5016186487       12.6365123502  MEMB      28              0.0000000000
      3281        28  OSM       H6S           -17.7118188645        5.4973427594       12.1614495376  MEMB      28              0.0000000000
      3282        28  OSM       H6T           -16.7157803388        6.9701292500       12.4391890783  MEMB      28              0.0000000000
      3283        28  OSM       C7S           -18.6090855424        7.2561746894       11.6693676908  MEMB      28              0.0000000000
      3284        28  OSM       H7S           -18.0677449468        7.2357538017       10.6993908883  MEMB      28              0.0000000000
      3285        28  OSM       H7T           -18.8493853036        8.2732217013       12.0464510456  MEMB      28              0.0000000000
      3286        28  OSM       C8S           -20.0250141472        6.7059886676       11.3944654544  MEMB      28              0.0000000000
      3287        28  OSM       H8S           -20.5629270316        6.7233776831       12.3664061741  MEMB      28              0.0000000000
      3288        28  OSM       H8T           -19.9186555925        5.6289400800       11.1435165159  MEMB      28              0.0000000000
      3289        28  OSM       C9S           -20.7538180307        7.4523949367       10.2767453250  MEMB      28              0.0000000000
      3290        28  OSM       H9S           -20.7390879034        8.5071123419       10.6255656754  MEMB      28              0.0000000000
      3291        28  OSM       H9T           -21.8411859604        7.2251522860       10.2944317457  MEMB      28              0.0000000000
      3292        28  OSM       C10S          -20.3817538333        7.0631845478        8.8702837638  MEMB      28              0.0000000000
      3293        28  OSM       H10S          -20.1523460130        5.9811243971        8.7661731754  MEMB      28              0.0000000000
      3294        28  OSM       H10T          -19.4049444295        7.5306797214        8.6220654608  MEMB      28              0.0000000000
      3295        28  OSM       C11S          -21.3663619605        7.5227729147        7.7912618230  MEMB      28              0.0000000000
      3296        28  OSM       H11S          -21.2756029948        8.6245323051        7.6807615611  MEMB      28              0.0000000000
      3297        28  OSM       H11T          -22.3352683314        7.1157116386        8.1515983659  MEMB      28              0.0000000000
      3298        28  OSM       C12S          -21.1415774317        6.9407940494        6.3520506475  MEMB      28              0.0000000000
      3299        28  OSM       H12S          -21.0764071989        5.8490443142        6.5473869417  MEMB      28              0.0000000000
      3300        28  OSM       H12T          -20.1721620510        7.3064202204        5.9509613087  MEMB      28              0.0000000000
      3301        28  OSM       C13S          -22.3101843351        7.4404860304        5.4920786773  MEMB      28              0.0000000000
      3302        28  OSM       H13S          -22.4597587660        8.5304879722        5.6464910976  MEMB      28              0.0000000000
      3303        28  OSM       H13T          -23.2602322805        6.9522135308        5.7975613470  MEMB      28              0.0000000000
      3304        28  OSM       C14S          -22.2292188608        7.1116370447        3.9676402869  MEMB      28              0.0000000000
      3305        28  OSM       H14S          -22.2365684561        6.0208545047        3.7567802742  MEMB      28              0.0000000000
      3306        28  OSM       H14T          -21.3576097490        7.4922819750        3.3934206991  MEMB      28              0.0000000000
      3307        28  OSM       C15S          -23.4609187387        7.6890346999        3.3402383667  MEMB      28              0.0000000000
      3308        28  OSM       H15S          -23.6325342275        8.7330458121        3.6792225443  MEMB      28              0.0000000000
      3309        28  OSM       H15T          -24.3612723590        7.1669386767        3.7289547250  MEMB      28              0.0000000000
      3310        28  OSM       C16S          -23.5479510624        7.5057658920        1.7838427810  MEMB      28              0.0000000000
      3311        28  OSM       H16S          -24.3068419416        8.2193357366        1.3975468209  MEMB      28              0.0000000000
      3312        28  OSM       H16T          -24.0274338689        6.5192022163        1.6074616161  MEMB      28              0.0000000000
      3313        28  OSM       C17S          -22.2799238460        7.7711372176        1.0856173589  MEMB      28              0.0000000000
      3314        28  OSM       H17S          -21.5564394301        7.0648911067        1.5461688222  MEMB      28              0.0000000000
      3315        28  OSM       H17T          -21.7867330055        8.7529488188        1.2503291961  MEMB      28              0.0000000000
      3316        28  OSM       C18S          -22.3875596512        7.5131210215       -0.4146962480  MEMB      28              0.0000000000
      3317        28  OSM       H18S          -23.2406318272        8.0729730448       -0.8541898326  MEMB      28              0.0000000000
      3318        28  OSM       H18T          -22.4815984067        6.4358582560       -0.6696156667  MEMB      28              0.0000000000
      3319        28  OSM       H18U          -21.4578429599        7.8835362369       -0.8971285641  MEMB      28              0.0000000000
      3320        28  OSM       C1F           -22.8803679455        7.0484921634       15.2154829608  MEMB      28              0.0000000000
      3321        28  OSM       OF            -23.4761085679        8.0694839607       15.6389389118  MEMB      28              0.0000000000
      3322        28  OSM       C2F           -23.6299739477        6.0510538965       14.3561339936  MEMB      28              0.0000000000
      3323        28  OSM       H2F           -24.5803801993        5.7247487152       14.8300260389  MEMB      28              0.0000000000
      3324        28  OSM       H2G           -22.9757294877        5.1877070300       14.1093191149  MEMB      28              0.0000000000
      3325        28  OSM       C3F           -23.9372198721        6.6396733013       12.9280226099  MEMB      28              0.0000000000
      3326        28  OSM       H3F           -22.9594709954        6.9578390929       12.5071914378  MEMB      28              0.0000000000
      3327        28  OSM       H3G           -24.5883386700        7.5350697720       13.0209220716  MEMB      28              0.0000000000
      3328        28  OSM       C4F           -24.4289650795        5.6308180774       11.7646181876  MEMB      28              0.0000000000
      3329        28  OSM       H4F           -24.5026486045        6.3261127224       10.9012197391  MEMB      28              0.0000000000
      3330        28  OSM       H4G           -25.4457410242        5.2194980389       11.9415460276  MEMB      28              0.0000000000
      3331        28  OSM       C5F           -23.4710634383        4.4894144994       11.3773244982  MEMB      28              0.0000000000
      3332        28  OSM       H5F           -23.4201098409        3.7577646418       12.2118382387  MEMB      28              0.0000000000
      3333        28  OSM       H5G           -22.3842960049        4.7101565257       11.4446313688  MEMB      28              0.0000000000
      3334        28  OSM       C6F           -23.8543732205        3.7573398029       10.0534715543  MEMB      28              0.0000000000
      3335        28  OSM       H6F           -23.8688339730        4.4579901195        9.1913807384  MEMB      28              0.0000000000
      3336        28  OSM       H6G           -24.8539441670        3.2970300390       10.2060949080  MEMB      28              0.0000000000
      3337        28  OSM       C7F           -22.7898429708        2.6532394108        9.7369396934  MEMB      28              0.0000000000
      3338        28  OSM       H7F           -22.6909936209        1.9374486082       10.5808557327  MEMB      28              0.0000000000
      3339        28  OSM       H7G           -21.7769151158        3.0916883062        9.6102086347  MEMB      28              0.0000000000
      3340        28  OSM       C8F           -23.3596339891        1.7505941422        8.5831426584  MEMB      28              0.0000000000
      3341        28  OSM       H8F           -24.3670116173        1.4172971591        8.9124215952  MEMB      28              0.0000000000
      3342        28  OSM       H8G           -22.6890247313        0.8648842561        8.5720929076  MEMB      28              0.0000000000
      3343        28  OSM       C9F           -23.5947444084        2.5425377038        7.2515743116  MEMB      28              0.0000000000
      3344        28  OSM       H9F           -24.4719528631        3.2062194668        7.2459166088  MEMB      28              0.0000000000
      3345        28  OSM       C10F          -22.8776405741        2.3052570508        6.1276328658  MEMB      28              0.0000000000
      3346        28  OSM       H10F          -23.1221425843        2.8897740653        5.2284339756  MEMB      28              0.0000000000
      3347        28  OSM       C11F          -21.7876469897        1.2813953589        6.0865199674  MEMB      28              0.0000000000
      3348        28  OSM       H11F          -21.8583183770        0.9602109503        5.0253094797  MEMB      28              0.0000000000
      3349        28  OSM       H11G          -22.0169498418        0.4355679417        6.7693935896  MEMB      28              0.0000000000
      3350        28  OSM       C12F          -20.4668639165        2.0032023182        6.3704669634  MEMB      28              0.0000000000
      3351        28  OSM       H12F          -19.7269404995        1.1894363739        6.2135619723  MEMB      28              0.0000000000
      3352        28  OSM       H12G          -20.3794907911        2.2873869884        7.4409460464  MEMB      28              0.0000000000
      3353        28  OSM       C13F          -20.1792855371        3.2832336820        5.4969036914  MEMB      28              0.0000000000
      3354        28  OSM       H13F          -19.2415568532        3.7475790690        5.8702260420  MEMB      28              0.0000000000
      3355        28  OSM       H13G          -21.0048844417        4.0156864290        5.6242631333  MEMB      28              0.0000000000
      3356        28  OSM       C14F          -20.0007492945        3.0425184254        3.9854775021  MEMB      28              0.0000000000
      3357        28  OSM       H14F          -21.0440642707        2.8685011367        3.6455764445  MEMB      28              0.0000000000
      3358        28  OSM       H14G          -19.4129164161        2.1236661662        3.7745650976  MEMB      28              0.0000000000
      3359        28  OSM       C15F          -19.1587275383        4.0961508802        3.2543299401  MEMB      28              0.0000000000
      3360        28  OSM       H15F          -18.0634511670        4.0309550249        3.4287994698  MEMB      28              0.0000000000
      3361        28  OSM       H15G          -19.6281397311        5.0987464568        3.3480071916  MEMB      28              0.0000000000
      3362        28  OSM       C16F          -19.4501698654        3.7123547605        1.7411234396  MEMB      28              0.0000000000
      3363        28  OSM       H16F          -20.4486853968        4.1335524429        1.4964199237  MEMB      28              0.0000000000
      3364        28  OSM       H16G          -19.3574085696        2.6106493012        1.6317576095  MEMB      28              0.0000000000
      3365        28  OSM       C17F          -18.4901968061        4.4194952616        0.7858890840  MEMB      28              0.0000000000
      3366        28  OSM       H17F          -17.5342389861        3.8704981779        0.9239780188  MEMB      28              0.0000000000
      3367        28  OSM       H17G          -18.3075848389        5.4825137587        1.0522837373  MEMB      28              0.0000000000
      3368        28  OSM       C18F          -18.8139681288        4.2404830207       -0.7049001894  MEMB      28              0.0000000000
      3369        28  OSM       H18F          -18.6965840240        3.1812713177       -1.0189261994  MEMB      28              0.0000000000
      3370        28  OSM       H18G          -18.1069006215        4.7692559540       -1.3792713326  MEMB      28              0.0000000000
      3371        28  OSM       H18H          -19.8722319904        4.5555409628       -0.8279324812  MEMB      28              0.0000000000
      3372        29  OSM       N             -16.1522819076       13.4446123735       21.9649178783  MEMB      29              0.0000000000
      3373        29  OSM       C15           -15.9984679526       13.6772003234       20.4585315711  MEMB      29              0.0000000000
      3374        29  OSM       H15A          -15.4674122576       14.6072536585       20.3193179971  MEMB      29              0.0000000000
      3375        29  OSM       H15B          -16.9578009481       13.7515893973       19.9680760998  MEMB      29              0.0000000000
      3376        29  OSM       H15C          -15.5204620215       12.8376046312       19.9758417844  MEMB      29              0.0000000000
      3377        29  OSM       C14           -14.7607715931       13.2088738964       22.5455506408  MEMB      29              0.0000000000
      3378        29  OSM       H14A          -14.9173295339       13.0983686652       23.6084137596  MEMB      29              0.0000000000
      3379        29  OSM       H14B          -14.0622165181       14.0034389584       22.3285549391  MEMB      29              0.0000000000
      3380        29  OSM       H14C          -14.3445382029       12.2595412435       22.2423717282  MEMB      29              0.0000000000
      3381        29  OSM       C13           -16.6962428695       14.6488576132       22.5615196729  MEMB      29              0.0000000000
      3382        29  OSM       H13A          -17.3616299018       14.2506583226       23.3132494804  MEMB      29              0.0000000000
      3383        29  OSM       H13B          -17.1861732365       15.2713508576       21.8274417407  MEMB      29              0.0000000000
      3384        29  OSM       H13C          -15.8573851246       15.2186754445       22.9330372567  MEMB      29              0.0000000000
      3385        29  OSM       C12           -16.9961991740       12.1852457978       22.0896694343  MEMB      29              0.0000000000
      3386        29  OSM       H12A          -16.7820007853       11.7101602092       23.0356148058  MEMB      29              0.0000000000
      3387        29  OSM       H12B          -16.6916392575       11.5915828941       21.2404300371  MEMB      29              0.0000000000
      3388        29  OSM       C11           -18.4752974704       12.3019319869       21.8921520164  MEMB      29              0.0000000000
      3389        29  OSM       H11A          -18.7921884411       12.7755225413       22.8458883617  MEMB      29              0.0000000000
      3390        29  OSM       H11B          -18.8471830554       11.2556147547       21.9273982171  MEMB      29              0.0000000000
      3391        29  OSM       P             -20.0543546368       12.5344646649       19.8992029937  MEMB      29              0.0000000000
      3392        29  OSM       O13           -19.7669506319       11.2226700629       19.3737729119  MEMB      29              0.0000000000
      3393        29  OSM       O14           -21.2249875124       12.7247598506       20.7878252628  MEMB      29              0.0000000000
      3394        29  OSM       O11           -20.1937687185       13.5346246079       18.7229957110  MEMB      29              0.0000000000
      3395        29  OSM       O12           -18.7824166362       13.0092287276       20.7038619094  MEMB      29              0.0000000000
      3396        29  OSM       C1S           -20.8033631505       13.1663890695       17.4737440535  MEMB      29              0.0000000000
      3397        29  OSM       H1S           -21.2719284442       14.0549756502       16.9992110007  MEMB      29              0.0000000000
      3398        29  OSM       H1T           -21.6996577420       12.5485860570       17.6957715235  MEMB      29              0.0000000000
      3399        29  OSM       NF            -19.3741552416       13.3830624764       15.4008398383  MEMB      29              0.0000000000
      3400        29  OSM       HNF           -20.0076520217       13.5949985470       14.6607222054  MEMB      29              0.0000000000
      3401        29  OSM       C2S           -19.9378507021       12.4774685038       16.4016339708  MEMB      29              0.0000000000
      3402        29  OSM       H2S           -19.1295574156       11.8815947887       16.8769415945  MEMB      29              0.0000000000
      3403        29  OSM       C3S           -20.8698612459       11.4578797684       15.6826533442  MEMB      29              0.0000000000
      3404        29  OSM       H3S           -21.9374730853       11.7644995460       15.6600661308  MEMB      29              0.0000000000
      3405        29  OSM       O3            -20.8838488592       10.2821255183       16.5507586482  MEMB      29              0.0000000000
      3406        29  OSM       HO3           -20.0668278036       10.2729556776       17.0547355861  MEMB      29              0.0000000000
      3407        29  OSM       C4S           -20.4183712070       11.0313127477       14.3455208451  MEMB      29              0.0000000000
      3408        29  OSM       H4S           -20.7830791749       11.5870665455       13.4690925355  MEMB      29              0.0000000000
      3409        29  OSM       C5S           -19.4072142373       10.1378106458       14.0222747330  MEMB      29              0.0000000000
      3410        29  OSM       H5S           -18.9178069793        9.5999737311       14.8476306749  MEMB      29              0.0000000000
      3411        29  OSM       C6S           -18.8731161082        9.7289776421       12.6430652448  MEMB      29              0.0000000000
      3412        29  OSM       H6S           -18.9537039188        8.6270086676       12.5269130357  MEMB      29              0.0000000000
      3413        29  OSM       H6T           -17.8195872981       10.0542691043       12.5067442663  MEMB      29              0.0000000000
      3414        29  OSM       C7S           -19.6789054361       10.2599896087       11.4559024850  MEMB      29              0.0000000000
      3415        29  OSM       H7S           -19.6973570724       11.3590095640       11.6175677600  MEMB      29              0.0000000000
      3416        29  OSM       H7T           -20.7431583200        9.9417866634       11.4767272057  MEMB      29              0.0000000000
      3417        29  OSM       C8S           -19.0487564006       10.0062130353       10.0455086597  MEMB      29              0.0000000000
      3418        29  OSM       H8S           -19.0883191827        8.9189023586        9.8207612140  MEMB      29              0.0000000000
      3419        29  OSM       H8T           -17.9813759377       10.3055465249       10.1191273013  MEMB      29              0.0000000000
      3420        29  OSM       C9S           -19.8547404619       10.7005067511        8.8949948764  MEMB      29              0.0000000000
      3421        29  OSM       H9S           -19.5233348787       11.7574488377        8.9808106081  MEMB      29              0.0000000000
      3422        29  OSM       H9T           -20.9362314271       10.6509451705        9.1444774342  MEMB      29              0.0000000000
      3423        29  OSM       C10S          -19.5540339800       10.0689670170        7.5093764405  MEMB      29              0.0000000000
      3424        29  OSM       H10S          -19.5557010006        8.9605874325        7.5856187334  MEMB      29              0.0000000000
      3425        29  OSM       H10T          -18.5088404062       10.3258286292        7.2338520913  MEMB      29              0.0000000000
      3426        29  OSM       C11S          -20.5159995512       10.5416488063        6.4198735738  MEMB      29              0.0000000000
      3427        29  OSM       H11S          -20.5646337645       11.6512080926        6.3910022449  MEMB      29              0.0000000000
      3428        29  OSM       H11T          -21.4738991566       10.1580495766        6.8317004133  MEMB      29              0.0000000000
      3429        29  OSM       C12S          -20.2666234966       10.0417796044        4.9551275671  MEMB      29              0.0000000000
      3430        29  OSM       H12S          -21.0837535666       10.4449985790        4.3194905188  MEMB      29              0.0000000000
      3431        29  OSM       H12T          -20.1601090429        8.9369942595        4.9058780142  MEMB      29              0.0000000000
      3432        29  OSM       C13S          -18.9229450210       10.5387702745        4.4088422516  MEMB      29              0.0000000000
      3433        29  OSM       H13S          -18.0597425627        9.9017626973        4.6976748365  MEMB      29              0.0000000000
      3434        29  OSM       H13T          -18.7256108409       11.5375667382        4.8535735635  MEMB      29              0.0000000000
      3435        29  OSM       C14S          -18.9588616484       10.6874219511        2.8974556959  MEMB      29              0.0000000000
      3436        29  OSM       H14S          -19.8840004351       11.2756295669        2.7173152319  MEMB      29              0.0000000000
      3437        29  OSM       H14T          -19.1375299771        9.7010658080        2.4183938213  MEMB      29              0.0000000000
      3438        29  OSM       C15S          -17.7275749615       11.3524763484        2.4196424266  MEMB      29              0.0000000000
      3439        29  OSM       H15S          -16.8148664620       10.7423056537        2.5898665081  MEMB      29              0.0000000000
      3440        29  OSM       H15T          -17.4481738380       12.3098921441        2.9091433701  MEMB      29              0.0000000000
      3441        29  OSM       C16S          -17.6972216547       11.8024253525        0.9570706546  MEMB      29              0.0000000000
      3442        29  OSM       H16S          -18.6134400165       12.3392495112        0.6304451096  MEMB      29              0.0000000000
      3443        29  OSM       H16T          -17.5105453612       10.9766393606        0.2376616359  MEMB      29              0.0000000000
      3444        29  OSM       C17S          -16.5706708996       12.8227272613        0.7062083904  MEMB      29              0.0000000000
      3445        29  OSM       H17S          -15.5854524683       12.3541522388        0.9162166554  MEMB      29              0.0000000000
      3446        29  OSM       H17T          -16.8855592036       13.6657561795        1.3577205257  MEMB      29              0.0000000000
      3447        29  OSM       C18S          -16.5354441094       13.3965394733       -0.7486534747  MEMB      29              0.0000000000
      3448        29  OSM       H18S          -17.4408237550       14.0280353512       -0.8744361228  MEMB      29              0.0000000000
      3449        29  OSM       H18T          -16.5914158765       12.5238640107       -1.4339459982  MEMB      29              0.0000000000
      3450        29  OSM       H18U          -15.5844197851       13.9349124707       -0.9487228641  MEMB      29              0.0000000000
      3451        29  OSM       C1F           -18.3144007952       14.1438424477       15.6563952979  MEMB      29              0.0000000000
      3452        29  OSM       OF            -17.5372142023       14.0553945310       16.6099309472  MEMB      29              0.0000000000
      3453        29  OSM       C2F           -18.0006818374       15.1885793649       14.6494272143  MEMB      29              0.0000000000
      3454        29  OSM       H2F           -17.8668885716       16.1858797224       15.1203970984  MEMB      29              0.0000000000
      3455        29  OSM       H2G           -18.7689204901       15.2472204175       13.8489951875  MEMB      29              0.0000000000
      3456        29  OSM       C3F           -16.6326285924       14.7653247255       13.9672396377  MEMB      29              0.0000000000
      3457        29  OSM       H3F           -15.8587594316       14.9036859949       14.7522896300  MEMB      29              0.0000000000
      3458        29  OSM       H3G           -16.6296929253       15.4108291167       13.0630070656  MEMB      29              0.0000000000
      3459        29  OSM       C4F           -16.5919811828       13.3577085308       13.3276405369  MEMB      29              0.0000000000
      3460        29  OSM       H4F           -17.4766661367       13.2377295345       12.6663846961  MEMB      29              0.0000000000
      3461        29  OSM       H4G           -16.5363153887       12.6159001129       14.1528326422  MEMB      29              0.0000000000
      3462        29  OSM       C5F           -15.2799923704       13.0672449806       12.4969603703  MEMB      29              0.0000000000
      3463        29  OSM       H5F           -14.3598594785       13.0513356559       13.1193936119  MEMB      29              0.0000000000
      3464        29  OSM       H5G           -15.1726039644       13.9231071056       11.7967536876  MEMB      29              0.0000000000
      3465        29  OSM       C6F           -15.3876266424       11.8335931513       11.6502665976  MEMB      29              0.0000000000
      3466        29  OSM       H6F           -16.3601769498       11.8430400729       11.1132576695  MEMB      29              0.0000000000
      3467        29  OSM       H6G           -15.5295466570       10.9825372531       12.3501828334  MEMB      29              0.0000000000
      3468        29  OSM       C7F           -14.2164922761       11.5852483113       10.7329103209  MEMB      29              0.0000000000
      3469        29  OSM       H7F           -14.2485859557       10.5953020518       10.2296237034  MEMB      29              0.0000000000
      3470        29  OSM       H7G           -13.2272784370       11.8175569702       11.1821433327  MEMB      29              0.0000000000
      3471        29  OSM       C8F           -14.1989130475       12.5939433422        9.5716855395  MEMB      29              0.0000000000
      3472        29  OSM       H8F           -13.1850118667       12.6271982426        9.1186728164  MEMB      29              0.0000000000
      3473        29  OSM       H8G           -14.2660222092       13.6368313390        9.9487819776  MEMB      29              0.0000000000
      3474        29  OSM       C9F           -15.2260804007       12.2983983312        8.4752908765  MEMB      29              0.0000000000
      3475        29  OSM       H9F           -15.2314230600       11.2739878014        8.0745975471  MEMB      29              0.0000000000
      3476        29  OSM       C10F          -16.1228533103       13.1881383507        7.9053579360  MEMB      29              0.0000000000
      3477        29  OSM       H10F          -16.6397959913       12.7246264933        7.0521724046  MEMB      29              0.0000000000
      3478        29  OSM       C11F          -16.2762926958       14.6197903451        8.2739627851  MEMB      29              0.0000000000
      3479        29  OSM       H11F          -15.6986298836       15.1961789118        7.5200376401  MEMB      29              0.0000000000
      3480        29  OSM       H11G          -15.8630475540       14.9980993686        9.2333536303  MEMB      29              0.0000000000
      3481        29  OSM       C12F          -17.7258348968       15.2034491343        8.2184866398  MEMB      29              0.0000000000
      3482        29  OSM       H12F          -17.6646043981       16.3062744940        8.3382703423  MEMB      29              0.0000000000
      3483        29  OSM       H12G          -18.4273605758       14.7689347145        8.9623823736  MEMB      29              0.0000000000
      3484        29  OSM       C13F          -18.3952876127       14.8623840157        6.8740436375  MEMB      29              0.0000000000
      3485        29  OSM       H13F          -18.5927774657       13.7698798538        6.8321689472  MEMB      29              0.0000000000
      3486        29  OSM       H13G          -17.6367894878       15.0025581328        6.0744482156  MEMB      29              0.0000000000
      3487        29  OSM       C14F          -19.6593051732       15.6313114681        6.5616868747  MEMB      29              0.0000000000
      3488        29  OSM       H14F          -19.3304522544       16.6779867408        6.3866236041  MEMB      29              0.0000000000
      3489        29  OSM       H14G          -20.2508411713       15.6185874668        7.5020301061  MEMB      29              0.0000000000
      3490        29  OSM       C15F          -20.3747257037       15.1481683532        5.3155241267  MEMB      29              0.0000000000
      3491        29  OSM       H15F          -21.2095529538       15.8663200889        5.1684102604  MEMB      29              0.0000000000
      3492        29  OSM       H15G          -20.7496676190       14.1181064782        5.4963881015  MEMB      29              0.0000000000
      3493        29  OSM       C16F          -19.4095082377       15.0543405174        4.0948857928  MEMB      29              0.0000000000
      3494        29  OSM       H16F          -18.5278832484       14.4240464849        4.3394022176  MEMB      29              0.0000000000
      3495        29  OSM       H16G          -19.0757892649       16.0833634720        3.8417766403  MEMB      29              0.0000000000
      3496        29  OSM       C17F          -20.1006818828       14.4818956447        2.8653812609  MEMB      29              0.0000000000
      3497        29  OSM       H17F          -20.5899125352       13.5212234294        3.1338667289  MEMB      29              0.0000000000
      3498        29  OSM       H17G          -19.4044898125       14.1914754579        2.0497276780  MEMB      29              0.0000000000
      3499        29  OSM       C18F          -21.2108835544       15.3987773277        2.3269016683  MEMB      29              0.0000000000
      3500        29  OSM       H18F          -21.6027534774       14.8950841111        1.4174787773  MEMB      29              0.0000000000
      3501        29  OSM       H18G          -20.7394186616       16.3770479771        2.0923224449  MEMB      29              0.0000000000
      3502        29  OSM       H18H          -21.9947759058       15.5230643517        3.1043257987  MEMB      29              0.0000000000
      3503        30  SOPE      N              19.0825509699       12.6715693246       22.3539849746  MEMB      30              0.0000000000
      3504        30  SOPE      HN1            18.5414832030       12.5505929304       21.4740927178  MEMB      30              0.0000000000
      3505        30  SOPE      HN2            18.5174647094       13.1636147013       23.0752123786  MEMB      30              0.0000000000
      3506        30  SOPE      HN3            20.0256619857       13.0882779721       22.2179869672  MEMB      30              0.0000000000
      3507        30  SOPE      C12            19.2806051134       11.3221015755       23.0425670234  MEMB      30              0.0000000000
      3508        30  SOPE      H12A           18.3216351198       10.7987286863       23.2445034967  MEMB      30              0.0000000000
      3509        30  SOPE      H12B           19.9462178493       11.4065467656       23.9280891711  MEMB      30              0.0000000000
      3510        30  SOPE      C11            20.1516826867       10.3838972912       22.1270835814  MEMB      30              0.0000000000
      3511        30  SOPE      H11A           20.6578370526        9.7719759774       22.9040527074  MEMB      30              0.0000000000
      3512        30  SOPE      H11B           20.9001154212       10.9414935610       21.5243765015  MEMB      30              0.0000000000
      3513        30  SOPE      P              19.9092124131        8.7029722087       20.0865786488  MEMB      30              0.0000000000
      3514        30  SOPE      O13            18.8368561198        8.0958281184       19.2063664783  MEMB      30              0.0000000000
      3515        30  SOPE      O14            20.8456582346        7.7565235953       20.5989483533  MEMB      30              0.0000000000
      3516        30  SOPE      O12            19.3239632100        9.4508299530       21.3116500786  MEMB      30              0.0000000000
      3517        30  SOPE      O11            20.7896277613        9.8200187392       19.2728208587  MEMB      30              0.0000000000
      3518        30  SOPE      C1             20.0613299084       10.8369131736       18.5586490670  MEMB      30              0.0000000000
      3519        30  SOPE      HA             20.6551861256       11.7692874131       18.4475896572  MEMB      30              0.0000000000
      3520        30  SOPE      HB             19.0667346409       11.1423649930       18.9482648157  MEMB      30              0.0000000000
      3521        30  SOPE      C2             19.7960615064       10.5203643123       17.0678600378  MEMB      30              0.0000000000
      3522        30  SOPE      HS             19.1492383090        9.6219093121       16.9744827453  MEMB      30              0.0000000000
      3523        30  SOPE      O21            21.0498574866       10.3456874025       16.4284341331  MEMB      30              0.0000000000
      3524        30  SOPE      C21            21.2765639053        9.3873104929       15.5545953192  MEMB      30              0.0000000000
      3525        30  SOPE      O22            20.5196409042        8.6124832337       15.0518046425  MEMB      30              0.0000000000
      3526        30  SOPE      C22            22.6865523222        9.6478200837       14.9799041731  MEMB      30              0.0000000000
      3527        30  SOPE      H2R            23.0709028468        8.7032677084       14.5389775029  MEMB      30              0.0000000000
      3528        30  SOPE      H2S            23.3824242835        9.9409083465       15.7948782422  MEMB      30              0.0000000000
      3529        30  SOPE      C3             19.0992638142       11.6641441110       16.4185160779  MEMB      30              0.0000000000
      3530        30  SOPE      HX             19.6285595237       12.6032692313       16.6872372657  MEMB      30              0.0000000000
      3531        30  SOPE      HY             18.0781646195       11.8524530783       16.8137591206  MEMB      30              0.0000000000
      3532        30  SOPE      O31            19.1364443424       11.6041221935       14.9238727659  MEMB      30              0.0000000000
      3533        30  SOPE      C31            18.1691713050       10.9170570623       14.3415838517  MEMB      30              0.0000000000
      3534        30  SOPE      O32            17.2753387818       10.3360400650       14.9611008693  MEMB      30              0.0000000000
      3535        30  SOPE      C32            18.4254433769       10.9489852790       12.8070144045  MEMB      30              0.0000000000
      3536        30  SOPE      H2X            19.3775457771       10.4124695918       12.6070820287  MEMB      30              0.0000000000
      3537        30  SOPE      H2Y            18.5368917751       12.0048157384       12.4797195059  MEMB      30              0.0000000000
      3538        30  SOPE      C23            22.7947222138       10.6238309644       13.8034578029  MEMB      30              0.0000000000
      3539        30  SOPE      H3R            22.5056121100       11.6493679436       14.1181166156  MEMB      30              0.0000000000
      3540        30  SOPE      H3S            22.1401560222       10.3499410600       12.9485607676  MEMB      30              0.0000000000
      3541        30  SOPE      C24            24.1925018383       10.4977227434       13.1912802403  MEMB      30              0.0000000000
      3542        30  SOPE      H4R            24.9142308587       10.9434587552       13.9087390518  MEMB      30              0.0000000000
      3543        30  SOPE      H4S            24.3708942039        9.4135496452       13.0267631689  MEMB      30              0.0000000000
      3544        30  SOPE      C25            24.3448413384       11.2842649987       11.8340566622  MEMB      30              0.0000000000
      3545        30  SOPE      H5R            24.2661085076       12.3712130815       12.0500795232  MEMB      30              0.0000000000
      3546        30  SOPE      H5S            25.3713546208       11.0512011291       11.4787077880  MEMB      30              0.0000000000
      3547        30  SOPE      C26            23.3170576935       10.8746157306       10.7709264474  MEMB      30              0.0000000000
      3548        30  SOPE      H6R            22.7857394740        9.9229524910       10.9862381038  MEMB      30              0.0000000000
      3549        30  SOPE      H6S            22.6550309877       11.7667718822       10.7808853401  MEMB      30              0.0000000000
      3550        30  SOPE      C27            23.9301359693       10.6997546359        9.3456133433  MEMB      30              0.0000000000
      3551        30  SOPE      H7R            23.8203035306       11.7296878528        8.9437479150  MEMB      30              0.0000000000
      3552        30  SOPE      H7S            25.0111694751       10.4472772124        9.3896889601  MEMB      30              0.0000000000
      3553        30  SOPE      C28            23.0076121877        9.8277285926        8.3369729259  MEMB      30              0.0000000000
      3554        30  SOPE      H8R            21.9774909801       10.0779499460        8.6694793254  MEMB      30              0.0000000000
      3555        30  SOPE      H8S            23.2165272830       10.2456937852        7.3290141268  MEMB      30              0.0000000000
      3556        30  SOPE      C29            23.2649812507        8.3622928594        8.3760777879  MEMB      30              0.0000000000
      3557        30  SOPE      H91            24.1287861708        7.9728524581        8.9348057988  MEMB      30              0.0000000000
      3558        30  SOPE      C210           22.3160585292        7.5032082798        7.8973183729  MEMB      30              0.0000000000
      3559        30  SOPE      H101           22.5320830428        6.4305645514        8.0103161498  MEMB      30              0.0000000000
      3560        30  SOPE      C211           21.0125328299        7.8909655414        7.2737159649  MEMB      30              0.0000000000
      3561        30  SOPE      H11R           20.6809752048        8.8551394511        7.7150311434  MEMB      30              0.0000000000
      3562        30  SOPE      H11S           20.3341379542        7.0959310924        7.6505737370  MEMB      30              0.0000000000
      3563        30  SOPE      C212           21.0884344718        7.9464675621        5.7425985315  MEMB      30              0.0000000000
      3564        30  SOPE      H12R           21.2825770534        6.9877862629        5.2157593166  MEMB      30              0.0000000000
      3565        30  SOPE      H12S           21.8999357684        8.6230627175        5.3990794686  MEMB      30              0.0000000000
      3566        30  SOPE      C213           19.7155817847        8.3502881250        5.1656381575  MEMB      30              0.0000000000
      3567        30  SOPE      H13R           19.4924826183        9.3145543364        5.6703543536  MEMB      30              0.0000000000
      3568        30  SOPE      H13S           19.0544794864        7.4789688785        5.3607477974  MEMB      30              0.0000000000
      3569        30  SOPE      C214           19.8201686001        8.5223844634        3.6524655099  MEMB      30              0.0000000000
      3570        30  SOPE      H14R           20.3830116305        7.6623578596        3.2307031071  MEMB      30              0.0000000000
      3571        30  SOPE      H14S           20.3561812078        9.4308327219        3.3035598627  MEMB      30              0.0000000000
      3572        30  SOPE      C215           18.4333666951        8.6743642650        2.9127639092  MEMB      30              0.0000000000
      3573        30  SOPE      H15R           17.8287754415        7.7812240867        3.1793931214  MEMB      30              0.0000000000
      3574        30  SOPE      H15S           18.5967064875        8.7945498097        1.8204297258  MEMB      30              0.0000000000
      3575        30  SOPE      C216           17.6862442819        9.9294232560        3.3538330450  MEMB      30              0.0000000000
      3576        30  SOPE      H16R           17.9077412451       10.1968909846        4.4091637171  MEMB      30              0.0000000000
      3577        30  SOPE      H16S           16.6008650728        9.7019168721        3.2866421164  MEMB      30              0.0000000000
      3578        30  SOPE      C217           17.9382129852       11.0917654930        2.4450669015  MEMB      30              0.0000000000
      3579        30  SOPE      H17R           17.9264687356       10.7203329313        1.3980611120  MEMB      30              0.0000000000
      3580        30  SOPE      H17S           18.9954043245       11.4167386827        2.5502320996  MEMB      30              0.0000000000
      3581        30  SOPE      C218           16.9106172421       12.2361729153        2.5573886850  MEMB      30              0.0000000000
      3582        30  SOPE      H18R           16.8123896818       12.4261779944        3.6476042994  MEMB      30              0.0000000000
      3583        30  SOPE      H18S           15.8919466511       11.9682459135        2.2040519929  MEMB      30              0.0000000000
      3584        30  SOPE      H18T           17.2518246683       13.2117844452        2.1498570596  MEMB      30              0.0000000000
      3585        30  SOPE      C33            17.1560040575       10.3210014630       12.1623574887  MEMB      30              0.0000000000
      3586        30  SOPE      H3X            16.8116122780        9.3871010991       12.6558610494  MEMB      30              0.0000000000
      3587        30  SOPE      H3Y            17.3197584055        9.8958823792       11.1490561780  MEMB      30              0.0000000000
      3588        30  SOPE      C34            15.9983188116       11.3595696676       12.1262567945  MEMB      30              0.0000000000
      3589        30  SOPE      H4X            15.8199962918       11.5817621920       13.2001059802  MEMB      30              0.0000000000
      3590        30  SOPE      H4Y            15.1635963093       10.8155683195       11.6347062929  MEMB      30              0.0000000000
      3591        30  SOPE      C35            16.3357916558       12.5905734449       11.2528489707  MEMB      30              0.0000000000
      3592        30  SOPE      H5X            17.0583680657       13.2615684309       11.7646790540  MEMB      30              0.0000000000
      3593        30  SOPE      H5Y            15.4148793042       13.1246599387       10.9350548785  MEMB      30              0.0000000000
      3594        30  SOPE      C36            16.9187497833       12.1344759714        9.8498847502  MEMB      30              0.0000000000
      3595        30  SOPE      H6X            16.1884724195       11.4024436166        9.4435042929  MEMB      30              0.0000000000
      3596        30  SOPE      H6Y            17.9197293020       11.6543779766        9.8066798316  MEMB      30              0.0000000000
      3597        30  SOPE      C37            16.8091738724       13.3103817703        8.9538447933  MEMB      30              0.0000000000
      3598        30  SOPE      H7X            15.7438160692       13.6043044093        9.0676115740  MEMB      30              0.0000000000
      3599        30  SOPE      H7Y            16.9917118104       12.9314413980        7.9255429480  MEMB      30              0.0000000000
      3600        30  SOPE      C38            17.7182064127       14.5317641805        9.2641149160  MEMB      30              0.0000000000
      3601        30  SOPE      H8X            17.3934327442       14.7284443389       10.3082214116  MEMB      30              0.0000000000
      3602        30  SOPE      H8Y            17.3753596105       15.4242038437        8.6981393564  MEMB      30              0.0000000000
      3603        30  SOPE      C39            19.2391398133       14.3894617049        9.3870127507  MEMB      30              0.0000000000
      3604        30  SOPE      H9X            19.5329921195       13.4656200844        9.9296803866  MEMB      30              0.0000000000
      3605        30  SOPE      H9Y            19.5544415580       15.2820474662        9.9685589366  MEMB      30              0.0000000000
      3606        30  SOPE      C310           20.0686580979       14.4265898632        8.0837055334  MEMB      30              0.0000000000
      3607        30  SOPE      H10X           21.1210205062       14.2965635334        8.4152894394  MEMB      30              0.0000000000
      3608        30  SOPE      H10Y           19.8548738209       15.4266662574        7.6495808889  MEMB      30              0.0000000000
      3609        30  SOPE      C311           19.5249007222       13.5000436469        6.9708863064  MEMB      30              0.0000000000
      3610        30  SOPE      H11X           18.5043187841       13.8046026542        6.6546946243  MEMB      30              0.0000000000
      3611        30  SOPE      H11Y           19.4846608486       12.4601680783        7.3599366991  MEMB      30              0.0000000000
      3612        30  SOPE      C312           20.4110716580       13.4836999467        5.7154475447  MEMB      30              0.0000000000
      3613        30  SOPE      H12X           20.1377341419       14.2624555436        4.9717074750  MEMB      30              0.0000000000
      3614        30  SOPE      H12Y           20.2785489173       12.5130264459        5.1914703622  MEMB      30              0.0000000000
      3615        30  SOPE      C313           21.8730811815       13.4801143454        6.0185967050  MEMB      30              0.0000000000
      3616        30  SOPE      H13X           22.0257559432       12.8808166151        6.9415561571  MEMB      30              0.0000000000
      3617        30  SOPE      H13Y           22.1759260705       14.5381075136        6.1710978946  MEMB      30              0.0000000000
      3618        30  SOPE      C314           22.7383827090       12.7130406948        5.0089101420  MEMB      30              0.0000000000
      3619        30  SOPE      H14X           22.3981719297       11.6571772710        4.9478410090  MEMB      30              0.0000000000
      3620        30  SOPE      H14Y           23.7739113510       12.7452084551        5.4101163098  MEMB      30              0.0000000000
      3621        30  SOPE      C315           22.6991842778       13.2708677024        3.5402583200  MEMB      30              0.0000000000
      3622        30  SOPE      H15X           21.6907787085       13.1217121961        3.0984533196  MEMB      30              0.0000000000
      3623        30  SOPE      H15Y           23.2566484843       12.4690994983        3.0104257542  MEMB      30              0.0000000000
      3624        30  SOPE      C316           23.2219235021       14.6662725301        3.2754850974  MEMB      30              0.0000000000
      3625        30  SOPE      H16X           22.8780726431       15.3217439324        4.1040044454  MEMB      30              0.0000000000
      3626        30  SOPE      H16Y           22.8109871306       15.0376294004        2.3123925237  MEMB      30              0.0000000000
      3627        30  SOPE      C317           24.8286752978       14.7098504492        3.2219817949  MEMB      30              0.0000000000
      3628        30  SOPE      H17X           25.0915908234       14.4569103534        4.2713698680  MEMB      30              0.0000000000
      3629        30  SOPE      H17Y           25.0014266743       15.7912780137        3.0349186419  MEMB      30              0.0000000000
      3630        30  SOPE      C318           25.4191447011       13.8508817162        2.1774320033  MEMB      30              0.0000000000
      3631        30  SOPE      H18X           25.5406409256       12.9069152089        2.7505697288  MEMB      30              0.0000000000
      3632        30  SOPE      H18Y           26.4582714240       14.2096988095        2.0168464584  MEMB      30              0.0000000000
      3633        30  SOPE      H18Z           24.7933199988       13.7827487050        1.2619954657  MEMB      30              0.0000000000
      3634        31  OSM       N               4.7095540401      -24.6753127446       22.2800633604  MEMB      31              0.0000000000
      3635        31  OSM       C15             3.9156673816      -25.3817991442       21.1927765551  MEMB      31              0.0000000000
      3636        31  OSM       H15A            3.2790943130      -24.6653885524       20.6948500920  MEMB      31              0.0000000000
      3637        31  OSM       H15B            3.2984371227      -26.1793533060       21.5792143522  MEMB      31              0.0000000000
      3638        31  OSM       H15C            4.5498669053      -25.8077130177       20.4293709749  MEMB      31              0.0000000000
      3639        31  OSM       C14             3.8602300175      -23.9821125236       23.3320452704  MEMB      31              0.0000000000
      3640        31  OSM       H14A            3.2571818813      -24.7598852269       23.7767952747  MEMB      31              0.0000000000
      3641        31  OSM       H14B            3.2505478332      -23.2093595135       22.8875901983  MEMB      31              0.0000000000
      3642        31  OSM       H14C            4.4742705361      -23.4439073185       24.0389325830  MEMB      31              0.0000000000
      3643        31  OSM       C13             5.6855819872      -25.4976808629       22.8553012551  MEMB      31              0.0000000000
      3644        31  OSM       H13A            6.2453504546      -26.0425900914       22.1095579522  MEMB      31              0.0000000000
      3645        31  OSM       H13B            5.2388081277      -26.3189664195       23.3959334032  MEMB      31              0.0000000000
      3646        31  OSM       H13C            6.3531272385      -24.9370271945       23.4928361782  MEMB      31              0.0000000000
      3647        31  OSM       C12             5.4426945587      -23.5289537447       21.5302852993  MEMB      31              0.0000000000
      3648        31  OSM       H12A            6.3590354603      -23.8946667082       21.0909976946  MEMB      31              0.0000000000
      3649        31  OSM       H12B            5.7421835269      -22.8026082968       22.2713174843  MEMB      31              0.0000000000
      3650        31  OSM       C11             4.6674105742      -22.7453633197       20.4552272944  MEMB      31              0.0000000000
      3651        31  OSM       H11A            4.6019952559      -23.3526468761       19.5271925329  MEMB      31              0.0000000000
      3652        31  OSM       H11B            5.1355209037      -21.7830160468       20.1567623076  MEMB      31              0.0000000000
      3653        31  OSM       P               2.4343960669      -21.5333689067       19.9107528821  MEMB      31              0.0000000000
      3654        31  OSM       O13             1.0106011174      -21.4946881427       20.3275991442  MEMB      31              0.0000000000
      3655        31  OSM       O14             3.1248458216      -20.2412514220       19.5925088049  MEMB      31              0.0000000000
      3656        31  OSM       O11             2.6093774528      -22.5179803828       18.5773647995  MEMB      31              0.0000000000
      3657        31  OSM       O12             3.3795411772      -22.3343669084       20.9460753347  MEMB      31              0.0000000000
      3658        31  OSM       C1S             1.7970960759      -22.3151960856       17.4167410537  MEMB      31              0.0000000000
      3659        31  OSM       H1S             1.7682561174      -21.2340397095       17.1625951995  MEMB      31              0.0000000000
      3660        31  OSM       H1T             0.7552659155      -22.6232737685       17.6491183960  MEMB      31              0.0000000000
      3661        31  OSM       NF              1.8753273920      -22.4515531198       15.0325433404  MEMB      31              0.0000000000
      3662        31  OSM       HNF             1.1241724362      -22.8307279744       14.4977523353  MEMB      31              0.0000000000
      3663        31  OSM       C2S             2.2144792616      -23.1548891105       16.1757498595  MEMB      31              0.0000000000
      3664        31  OSM       H2S             3.3217839672      -23.1818137594       16.2621924299  MEMB      31              0.0000000000
      3665        31  OSM       C3S             1.5065212499      -24.5087169945       16.1661259225  MEMB      31              0.0000000000
      3666        31  OSM       H3S             0.4426214265      -24.2154832305       16.0378604752  MEMB      31              0.0000000000
      3667        31  OSM       O3              1.8975020464      -25.1325378111       17.4278666481  MEMB      31              0.0000000000
      3668        31  OSM       HO3             2.7647439768      -24.7671660320       17.6175901463  MEMB      31              0.0000000000
      3669        31  OSM       C4S             2.0232516335      -25.3305108805       15.0257354694  MEMB      31              0.0000000000
      3670        31  OSM       H4S             3.0564292368      -25.6794376897       15.1699367708  MEMB      31              0.0000000000
      3671        31  OSM       C5S             1.4372759674      -25.5820146573       13.8765443422  MEMB      31              0.0000000000
      3672        31  OSM       H5S             0.4662658901      -25.0764857559       13.7689331300  MEMB      31              0.0000000000
      3673        31  OSM       C6S             1.9644576865      -26.3910757447       12.7052661038  MEMB      31              0.0000000000
      3674        31  OSM       H6S             1.2429661233      -27.2064141014       12.4839194597  MEMB      31              0.0000000000
      3675        31  OSM       H6T             2.8834798417      -26.9863318563       12.8933872538  MEMB      31              0.0000000000
      3676        31  OSM       C7S             2.1419125807      -25.5839354856       11.3604538706  MEMB      31              0.0000000000
      3677        31  OSM       H7S             2.4562178369      -26.2598763231       10.5366589478  MEMB      31              0.0000000000
      3678        31  OSM       H7T             2.9518461188      -24.8263405153       11.4266265470  MEMB      31              0.0000000000
      3679        31  OSM       C8S             0.8003714059      -24.9403431968       10.9183733855  MEMB      31              0.0000000000
      3680        31  OSM       H8S             0.2984855515      -24.3534985494       11.7171505810  MEMB      31              0.0000000000
      3681        31  OSM       H8T             0.1007881783      -25.7720439513       10.6877695253  MEMB      31              0.0000000000
      3682        31  OSM       C9S             1.0171640512      -23.8481481535        9.7933516819  MEMB      31              0.0000000000
      3683        31  OSM       H9S             1.9231404284      -23.2397903111       10.0017473651  MEMB      31              0.0000000000
      3684        31  OSM       H9T             0.1649935340      -23.1353392183        9.7988111829  MEMB      31              0.0000000000
      3685        31  OSM       C10S            0.9875413228      -24.3585324771        8.3565405996  MEMB      31              0.0000000000
      3686        31  OSM       H10S            0.1921087453      -25.1310064707        8.2865988124  MEMB      31              0.0000000000
      3687        31  OSM       H10T            1.9694137359      -24.8331234354        8.1443826406  MEMB      31              0.0000000000
      3688        31  OSM       C11S            0.7430259312      -23.2261700272        7.3175669068  MEMB      31              0.0000000000
      3689        31  OSM       H11S            1.5455170931      -22.4617722828        7.3951870358  MEMB      31              0.0000000000
      3690        31  OSM       H11T           -0.1820035587      -22.6904597004        7.6203141058  MEMB      31              0.0000000000
      3691        31  OSM       C12S            0.5642544290      -23.6896454643        5.8721553222  MEMB      31              0.0000000000
      3692        31  OSM       H12S            0.2956367458      -22.8608643112        5.1827446744  MEMB      31              0.0000000000
      3693        31  OSM       H12T           -0.2008972185      -24.4923853541        5.8052779534  MEMB      31              0.0000000000
      3694        31  OSM       C13S            1.8815517305      -24.2416499541        5.2079035435  MEMB      31              0.0000000000
      3695        31  OSM       H13S            2.2194419901      -25.1533840285        5.7453900892  MEMB      31              0.0000000000
      3696        31  OSM       H13T            2.5338737292      -23.3856857526        5.4838060562  MEMB      31              0.0000000000
      3697        31  OSM       C14S            1.7814805792      -24.6093806634        3.7462695565  MEMB      31              0.0000000000
      3698        31  OSM       H14S            0.9725350380      -23.9739768040        3.3265193066  MEMB      31              0.0000000000
      3699        31  OSM       H14T            1.4477165220      -25.6690481362        3.7409944588  MEMB      31              0.0000000000
      3700        31  OSM       C15S            3.0561922203      -24.4788746269        2.9007705267  MEMB      31              0.0000000000
      3701        31  OSM       H15S            3.7398586458      -25.3228207946        3.1345998573  MEMB      31              0.0000000000
      3702        31  OSM       H15T            3.6694862886      -23.5942235330        3.1756971386  MEMB      31              0.0000000000
      3703        31  OSM       C16S            2.9345594045      -24.5148040955        1.3574452766  MEMB      31              0.0000000000
      3704        31  OSM       H16S            2.7047065702      -23.4624626305        1.0852941437  MEMB      31              0.0000000000
      3705        31  OSM       H16T            2.0684148135      -25.1890713549        1.1857547350  MEMB      31              0.0000000000
      3706        31  OSM       C17S            4.1509029711      -25.0031972118        0.5343594234  MEMB      31              0.0000000000
      3707        31  OSM       H17S            3.9540132985      -24.9592910405       -0.5581723403  MEMB      31              0.0000000000
      3708        31  OSM       H17T            4.1526660171      -26.1137535517        0.5657084485  MEMB      31              0.0000000000
      3709        31  OSM       C18S            5.4491060123      -24.2365747299        0.9274177349  MEMB      31              0.0000000000
      3710        31  OSM       H18S            5.2709175149      -23.1399924524        0.9186330833  MEMB      31              0.0000000000
      3711        31  OSM       H18T            6.2805746154      -24.4495007358        0.2219777852  MEMB      31              0.0000000000
      3712        31  OSM       H18U            5.6380986985      -24.5529439993        1.9755175296  MEMB      31              0.0000000000
      3713        31  OSM       C1F             2.5043653094      -21.4285908279       14.5065556833  MEMB      31              0.0000000000
      3714        31  OSM       OF              3.4943520291      -20.9936844911       15.0511435128  MEMB      31              0.0000000000
      3715        31  OSM       C2F             1.8953956505      -20.8176243836       13.3374357792  MEMB      31              0.0000000000
      3716        31  OSM       H2F             1.7558910198      -19.7316760816       13.5260506665  MEMB      31              0.0000000000
      3717        31  OSM       H2G             0.9107493654      -21.2576655369       13.0706834616  MEMB      31              0.0000000000
      3718        31  OSM       C3F             2.9625899406      -20.7729329322       12.1381411616  MEMB      31              0.0000000000
      3719        31  OSM       H3F             3.2341857956      -21.8033694877       11.8238853782  MEMB      31              0.0000000000
      3720        31  OSM       H3G             3.8462135394      -20.2441268596       12.5551487012  MEMB      31              0.0000000000
      3721        31  OSM       C4F             2.2215777733      -20.0386281913       10.9794381692  MEMB      31              0.0000000000
      3722        31  OSM       H4F             1.7704498671      -19.1138196835       11.3984062246  MEMB      31              0.0000000000
      3723        31  OSM       H4G             1.3748495059      -20.6309014894       10.5712903558  MEMB      31              0.0000000000
      3724        31  OSM       C5F             3.1510542255      -19.4818763849        9.7992368889  MEMB      31              0.0000000000
      3725        31  OSM       H5F             3.7355205028      -18.6091682801       10.1613153323  MEMB      31              0.0000000000
      3726        31  OSM       H5G             2.4111962461      -19.0381959241        9.0991802088  MEMB      31              0.0000000000
      3727        31  OSM       C6F             4.0373948570      -20.5046686727        9.0608952575  MEMB      31              0.0000000000
      3728        31  OSM       H6F             3.3066805820      -21.2160664692        8.6201104018  MEMB      31              0.0000000000
      3729        31  OSM       H6G             4.8781313971      -20.8496239937        9.7000262527  MEMB      31              0.0000000000
      3730        31  OSM       C7F             4.7901299304      -19.8067141513        7.9558211007  MEMB      31              0.0000000000
      3731        31  OSM       H7F             5.4323419931      -18.9599263951        8.2796036093  MEMB      31              0.0000000000
      3732        31  OSM       H7G             3.9770163143      -19.4265264421        7.3011265113  MEMB      31              0.0000000000
      3733        31  OSM       C8F             5.7638085640      -20.7041046973        7.1625500398  MEMB      31              0.0000000000
      3734        31  OSM       H8F             6.5024756256      -21.0804060860        7.9022049935  MEMB      31              0.0000000000
      3735        31  OSM       H8G             6.3718754511      -20.0676551252        6.4846800498  MEMB      31              0.0000000000
      3736        31  OSM       C9F             5.2317629731      -21.9083064765        6.5114312712  MEMB      31              0.0000000000
      3737        31  OSM       H9F             4.7057410071      -22.5413816455        7.2411686582  MEMB      31              0.0000000000
      3738        31  OSM       C10F            5.4261548911      -22.2697098379        5.2293997801  MEMB      31              0.0000000000
      3739        31  OSM       H10F            5.0480683783      -23.2377914674        4.8690268465  MEMB      31              0.0000000000
      3740        31  OSM       C11F            6.1934892990      -21.5236386270        4.2019292026  MEMB      31              0.0000000000
      3741        31  OSM       H11F            6.3993390901      -22.2656564244        3.4010813844  MEMB      31              0.0000000000
      3742        31  OSM       H11G            7.1322060050      -21.1291551264        4.6463551206  MEMB      31              0.0000000000
      3743        31  OSM       C12F            5.4109282306      -20.3883078382        3.5582930493  MEMB      31              0.0000000000
      3744        31  OSM       H12F            5.2574640956      -19.5303547948        4.2472681150  MEMB      31              0.0000000000
      3745        31  OSM       H12G            4.4630367628      -20.8729787839        3.2406192305  MEMB      31              0.0000000000
      3746        31  OSM       C13F            5.9626185416      -19.6926033804        2.3069823929  MEMB      31              0.0000000000
      3747        31  OSM       H13F            6.2698395165      -20.4920283699        1.5992694689  MEMB      31              0.0000000000
      3748        31  OSM       H13G            6.9944162092      -19.3362802896        2.5137389378  MEMB      31              0.0000000000
      3749        31  OSM       C14F            4.9528794780      -18.7249418646        1.7093863089  MEMB      31              0.0000000000
      3750        31  OSM       H14F            5.4525722759      -18.3352453957        0.7968266690  MEMB      31              0.0000000000
      3751        31  OSM       H14G            4.7912957105      -17.9323770849        2.4709977484  MEMB      31              0.0000000000
      3752        31  OSM       C15F            3.7081177253      -19.4416846950        1.3088126565  MEMB      31              0.0000000000
      3753        31  OSM       H15F            2.9918589707      -19.4492118192        2.1580712097  MEMB      31              0.0000000000
      3754        31  OSM       H15G            3.9858666587      -20.5035257825        1.1365626255  MEMB      31              0.0000000000
      3755        31  OSM       C16F            2.9523881970      -18.8784662967        0.0225484025  MEMB      31              0.0000000000
      3756        31  OSM       H16F            2.8985549746      -17.7882857976        0.2297419171  MEMB      31              0.0000000000
      3757        31  OSM       H16G            1.9976294458      -19.4464385551        0.0097391616  MEMB      31              0.0000000000
      3758        31  OSM       C17F            3.5829198767      -18.9553866157       -1.4145695493  MEMB      31              0.0000000000
      3759        31  OSM       H17F            4.3100589067      -18.1229453033       -1.5269578411  MEMB      31              0.0000000000
      3760        31  OSM       H17G            2.7045652976      -18.7064053251       -2.0476742864  MEMB      31              0.0000000000
      3761        31  OSM       C18F            4.3400735886      -20.2763104928       -1.8619821374  MEMB      31              0.0000000000
      3762        31  OSM       H18F            4.8482461925      -20.2847399768       -2.8499140597  MEMB      31              0.0000000000
      3763        31  OSM       H18G            3.6027745723      -21.0971950035       -1.7321379477  MEMB      31              0.0000000000
      3764        31  OSM       H18H            5.0733523708      -20.4847918069       -1.0537995979  MEMB      31              0.0000000000
      3765        32  OSM       N             -14.0691177567       19.8334217014       23.0706637256  MEMB      32              0.0000000000
      3766        32  OSM       C15           -15.0013020988       21.0415637101       23.1628834008  MEMB      32              0.0000000000
      3767        32  OSM       H15A          -14.6366086131       21.7079387146       23.9305701216  MEMB      32              0.0000000000
      3768        32  OSM       H15B          -15.9808884896       20.6490052477       23.3924664786  MEMB      32              0.0000000000
      3769        32  OSM       H15C          -15.0157379898       21.5605506835       22.2158647898  MEMB      32              0.0000000000
      3770        32  OSM       C14           -12.6668247293       20.1890424749       22.6540190305  MEMB      32              0.0000000000
      3771        32  OSM       H14A          -12.7601967528       20.7124977518       21.7139786362  MEMB      32              0.0000000000
      3772        32  OSM       H14B          -12.1444604929       19.2460505594       22.5884301532  MEMB      32              0.0000000000
      3773        32  OSM       H14C          -12.0967552479       20.8789376456       23.2585562920  MEMB      32              0.0000000000
      3774        32  OSM       C13           -14.0113677584       19.2964818759       24.4779750740  MEMB      32              0.0000000000
      3775        32  OSM       H13A          -15.0205645497       19.2338829724       24.8574526334  MEMB      32              0.0000000000
      3776        32  OSM       H13B          -13.3854826757       19.9929041947       25.0161794683  MEMB      32              0.0000000000
      3777        32  OSM       H13C          -13.4495849018       18.3747855679       24.5136943771  MEMB      32              0.0000000000
      3778        32  OSM       C12           -14.7312563841       18.7854810244       22.1774487424  MEMB      32              0.0000000000
      3779        32  OSM       H12A          -15.6161450393       18.3718281885       22.6381691854  MEMB      32              0.0000000000
      3780        32  OSM       H12B          -14.1546553121       17.9051529896       21.9346448779  MEMB      32              0.0000000000
      3781        32  OSM       C11           -15.3655378304       19.1893423299       20.7452804787  MEMB      32              0.0000000000
      3782        32  OSM       H11A          -15.9498257256       20.1094196774       20.9606553952  MEMB      32              0.0000000000
      3783        32  OSM       H11B          -15.9555993180       18.3091322575       20.4115462571  MEMB      32              0.0000000000
      3784        32  OSM       P             -13.5800772923       18.4947456389       18.9314986441  MEMB      32              0.0000000000
      3785        32  OSM       O13           -12.7770714881       19.2495379288       17.9329638254  MEMB      32              0.0000000000
      3786        32  OSM       O14           -12.9441930704       17.4914543434       19.8342170123  MEMB      32              0.0000000000
      3787        32  OSM       O11           -14.8161187107       17.7738808559       18.1481814004  MEMB      32              0.0000000000
      3788        32  OSM       O12           -14.3266330817       19.5774565152       19.8648686708  MEMB      32              0.0000000000
      3789        32  OSM       C1S           -15.5677833064       18.5365314186       17.1656144517  MEMB      32              0.0000000000
      3790        32  OSM       H1S           -15.3458253417       19.6223063625       17.2440267298  MEMB      32              0.0000000000
      3791        32  OSM       H1T           -16.6341417300       18.3811170291       17.4358869531  MEMB      32              0.0000000000
      3792        32  OSM       NF            -16.0490957909       18.6852923109       14.6948010010  MEMB      32              0.0000000000
      3793        32  OSM       HNF           -16.8344712415       18.3155122208       14.2044368201  MEMB      32              0.0000000000
      3794        32  OSM       C2S           -15.3794412395       17.9821321036       15.7516892580  MEMB      32              0.0000000000
      3795        32  OSM       H2S           -14.2962596912       17.9937801797       15.5049040682  MEMB      32              0.0000000000
      3796        32  OSM       C3S           -15.8303246912       16.4840201708       15.6738858860  MEMB      32              0.0000000000
      3797        32  OSM       H3S           -16.9031541423       16.2984736472       15.8950881016  MEMB      32              0.0000000000
      3798        32  OSM       O3            -15.0948149135       15.6198201599       16.4590130292  MEMB      32              0.0000000000
      3799        32  OSM       HO3           -14.6407453970       16.2530390952       17.0197758644  MEMB      32              0.0000000000
      3800        32  OSM       C4S           -15.5903988607       15.9315789042       14.2970467762  MEMB      32              0.0000000000
      3801        32  OSM       H4S           -14.6273572668       16.1003317952       13.7929894956  MEMB      32              0.0000000000
      3802        32  OSM       C5S           -16.5691536818       15.3223854989       13.6393448425  MEMB      32              0.0000000000
      3803        32  OSM       H5S           -17.4161902693       15.0372998713       14.2806362215  MEMB      32              0.0000000000
      3804        32  OSM       C6S           -16.5158335094       14.6110859882       12.1942046298  MEMB      32              0.0000000000
      3805        32  OSM       H6S           -17.2094961780       13.7472411220       12.2774204672  MEMB      32              0.0000000000
      3806        32  OSM       H6T           -15.5291544129       14.1228480214       12.0445083108  MEMB      32              0.0000000000
      3807        32  OSM       C7S           -16.9712896903       15.6599578795       11.1992723354  MEMB      32              0.0000000000
      3808        32  OSM       H7S           -17.9447781765       16.0970115585       11.5085055373  MEMB      32              0.0000000000
      3809        32  OSM       H7T           -17.2341340519       15.2706619324       10.1924535412  MEMB      32              0.0000000000
      3810        32  OSM       C8S           -16.0841982341       16.8948222677       11.0713209454  MEMB      32              0.0000000000
      3811        32  OSM       H8S           -15.9970256528       17.5060374644       11.9949754460  MEMB      32              0.0000000000
      3812        32  OSM       H8T           -16.4251589048       17.4663379219       10.1816935146  MEMB      32              0.0000000000
      3813        32  OSM       C9S           -14.5817960377       16.5702580965       10.6592627526  MEMB      32              0.0000000000
      3814        32  OSM       H9S           -14.7883977552       15.9805583864        9.7406277064  MEMB      32              0.0000000000
      3815        32  OSM       H9T           -14.2679711844       15.9930128404       11.5551550950  MEMB      32              0.0000000000
      3816        32  OSM       C10S          -13.6003883863       17.7017256805       10.5184680636  MEMB      32              0.0000000000
      3817        32  OSM       H10S          -12.6041776080       17.2436094175       10.3395417725  MEMB      32              0.0000000000
      3818        32  OSM       H10T          -13.4552354378       18.4199387395       11.3535857565  MEMB      32              0.0000000000
      3819        32  OSM       C11S          -13.8333499517       18.5053672552        9.2278175483  MEMB      32              0.0000000000
      3820        32  OSM       H11S          -13.2329273634       19.4343856872        9.3314442482  MEMB      32              0.0000000000
      3821        32  OSM       H11T          -14.8927601355       18.7974272972        9.0645010970  MEMB      32              0.0000000000
      3822        32  OSM       C12S          -13.3828143944       17.7605980545        7.9764718454  MEMB      32              0.0000000000
      3823        32  OSM       H12S          -13.9678799408       16.8167918715        7.9411277093  MEMB      32              0.0000000000
      3824        32  OSM       H12T          -12.2943822034       17.6050534529        8.1359793459  MEMB      32              0.0000000000
      3825        32  OSM       C13S          -13.5386555279       18.4675724585        6.6612549340  MEMB      32              0.0000000000
      3826        32  OSM       H13S          -12.7840167153       19.2766454982        6.5600512559  MEMB      32              0.0000000000
      3827        32  OSM       H13T          -14.5529926432       18.8944381330        6.5088508512  MEMB      32              0.0000000000
      3828        32  OSM       C14S          -13.5317386242       17.4371575254        5.4528196649  MEMB      32              0.0000000000
      3829        32  OSM       H14S          -14.2879963218       16.6536030823        5.6729053074  MEMB      32              0.0000000000
      3830        32  OSM       H14T          -12.5594768231       16.9414314149        5.6608674924  MEMB      32              0.0000000000
      3831        32  OSM       C15S          -13.8650806737       18.1266954469        4.0750119925  MEMB      32              0.0000000000
      3832        32  OSM       H15S          -13.3864600516       17.6430028236        3.1967844711  MEMB      32              0.0000000000
      3833        32  OSM       H15T          -13.3971976276       19.1279604147        4.1884794990  MEMB      32              0.0000000000
      3834        32  OSM       C16S          -15.3708263664       17.9927668206        3.7748348033  MEMB      32              0.0000000000
      3835        32  OSM       H16S          -15.9901732136       18.2559310310        4.6588453009  MEMB      32              0.0000000000
      3836        32  OSM       H16T          -15.6035364017       16.9064156475        3.7776904702  MEMB      32              0.0000000000
      3837        32  OSM       C17S          -15.6613540887       18.6959176827        2.4699433059  MEMB      32              0.0000000000
      3838        32  OSM       H17S          -15.1914032781       19.6933683698        2.3337104444  MEMB      32              0.0000000000
      3839        32  OSM       H17T          -16.7630324646       18.8035259698        2.3748329075  MEMB      32              0.0000000000
      3840        32  OSM       C18S          -15.1059190251       18.0116152341        1.2016560171  MEMB      32              0.0000000000
      3841        32  OSM       H18S          -15.4805159195       16.9663899847        1.1628942953  MEMB      32              0.0000000000
      3842        32  OSM       H18T          -13.9950908936       17.9922458732        1.1990520274  MEMB      32              0.0000000000
      3843        32  OSM       H18U          -15.4688480049       18.6713791168        0.3847627065  MEMB      32              0.0000000000
      3844        32  OSM       C1F           -15.6748894322       19.8861513869       14.2584725417  MEMB      32              0.0000000000
      3845        32  OSM       OF            -14.8907361569       20.6773137842       14.7993428929  MEMB      32              0.0000000000
      3846        32  OSM       C2F           -16.1433356186       20.1756138048       12.9479710012  MEMB      32              0.0000000000
      3847        32  OSM       H2F           -17.2079104397       19.8582190444       12.9641572954  MEMB      32              0.0000000000
      3848        32  OSM       H2G           -15.5349889921       19.6625083467       12.1727565760  MEMB      32              0.0000000000
      3849        32  OSM       C3F           -16.0438842612       21.7381780282       12.6993775384  MEMB      32              0.0000000000
      3850        32  OSM       H3F           -15.0090071476       22.0651594222       12.9369353642  MEMB      32              0.0000000000
      3851        32  OSM       H3G           -16.7445200921       22.4146731501       13.2339661638  MEMB      32              0.0000000000
      3852        32  OSM       C4F           -16.2960848503       21.9294801770       11.1962695195  MEMB      32              0.0000000000
      3853        32  OSM       H4F           -15.5694889625       21.2590756842       10.6893796587  MEMB      32              0.0000000000
      3854        32  OSM       H4G           -16.0761574600       22.9835445518       10.9225884927  MEMB      32              0.0000000000
      3855        32  OSM       C5F           -17.7194748617       21.7533175349       10.8552317810  MEMB      32              0.0000000000
      3856        32  OSM       H5F           -18.3550996982       22.3885308649       11.5085356763  MEMB      32              0.0000000000
      3857        32  OSM       H5G           -17.9838469643       20.6913557986       11.0467151665  MEMB      32              0.0000000000
      3858        32  OSM       C6F           -18.1348419825       21.9911152413        9.4084373318  MEMB      32              0.0000000000
      3859        32  OSM       H6F           -17.9173729291       23.0565961827        9.1808881878  MEMB      32              0.0000000000
      3860        32  OSM       H6G           -19.2308606725       21.8096471236        9.4199769013  MEMB      32              0.0000000000
      3861        32  OSM       C7F           -17.4476682479       21.1293360709        8.3106081445  MEMB      32              0.0000000000
      3862        32  OSM       H7F           -17.9865969862       20.1598910027        8.2469437567  MEMB      32              0.0000000000
      3863        32  OSM       H7G           -16.4751260948       20.9089816343        8.8004304332  MEMB      32              0.0000000000
      3864        32  OSM       C8F           -17.2982360197       21.7676964152        6.8793493651  MEMB      32              0.0000000000
      3865        32  OSM       H8F           -16.6770010176       21.0496178233        6.3025029227  MEMB      32              0.0000000000
      3866        32  OSM       H8G           -16.6923654450       22.6983721458        6.9122795391  MEMB      32              0.0000000000
      3867        32  OSM       C9F           -18.5655795792       22.0380933328        6.1258631900  MEMB      32              0.0000000000
      3868        32  OSM       H9F           -19.2254634361       22.6755241771        6.7326866315  MEMB      32              0.0000000000
      3869        32  OSM       C10F          -18.7809085982       21.9831720764        4.7928371257  MEMB      32              0.0000000000
      3870        32  OSM       H10F          -19.7660326087       22.0366612406        4.3063487038  MEMB      32              0.0000000000
      3871        32  OSM       C11F          -17.7308404475       21.5891173225        3.8373328525  MEMB      32              0.0000000000
      3872        32  OSM       H11F          -18.1777071869       20.8439613491        3.1449643817  MEMB      32              0.0000000000
      3873        32  OSM       H11G          -16.8765298689       20.9895194403        4.2180653483  MEMB      32              0.0000000000
      3874        32  OSM       C12F          -17.1718484600       22.7137923210        3.0370305608  MEMB      32              0.0000000000
      3875        32  OSM       H12F          -16.7562887304       23.5227657717        3.6751488857  MEMB      32              0.0000000000
      3876        32  OSM       H12G          -17.9672851063       23.1998311703        2.4325739471  MEMB      32              0.0000000000
      3877        32  OSM       C13F          -15.9428498187       22.4611133236        2.0881011541  MEMB      32              0.0000000000
      3878        32  OSM       H13F          -16.1008824427       21.5234156781        1.5135855521  MEMB      32              0.0000000000
      3879        32  OSM       H13G          -15.0490021636       22.3824751696        2.7432151543  MEMB      32              0.0000000000
      3880        32  OSM       C14F          -15.6956251151       23.5822772034        1.0259703516  MEMB      32              0.0000000000
      3881        32  OSM       H14F          -15.7453648487       24.4966114495        1.6551285443  MEMB      32              0.0000000000
      3882        32  OSM       H14G          -16.5894290035       23.6531362088        0.3699119759  MEMB      32              0.0000000000
      3883        32  OSM       C15F          -14.3851770509       23.4612137549        0.2240958789  MEMB      32              0.0000000000
      3884        32  OSM       H15F          -13.5381865947       23.5315808835        0.9396203291  MEMB      32              0.0000000000
      3885        32  OSM       H15G          -14.2002732773       24.3372878242       -0.4336486252  MEMB      32              0.0000000000
      3886        32  OSM       C16F          -14.2212556862       22.1254680350       -0.5391770628  MEMB      32              0.0000000000
      3887        32  OSM       H16F          -14.7174225148       21.3654279101        0.1015090031  MEMB      32              0.0000000000
      3888        32  OSM       H16G          -13.1525073934       21.8803338153       -0.7180826564  MEMB      32              0.0000000000
      3889        32  OSM       C17F          -15.1113262905       22.0718878173       -1.7557913974  MEMB      32              0.0000000000
      3890        32  OSM       H17F          -14.8560537907       22.9680281550       -2.3608447459  MEMB      32              0.0000000000
      3891        32  OSM       H17G          -16.1725707358       22.1989505777       -1.4525815977  MEMB      32              0.0000000000
      3892        32  OSM       C18F          -14.9799345023       20.9229833467       -2.7537306693  MEMB      32              0.0000000000
      3893        32  OSM       H18F          -14.7080987136       20.0131755578       -2.1769512737  MEMB      32              0.0000000000
      3894        32  OSM       H18G          -14.2559594609       21.1426543478       -3.5673183676  MEMB      32              0.0000000000
      3895        32  OSM       H18H          -15.9425382493       20.7740273371       -3.2880774618  MEMB      32              0.0000000000
      3896        33  SAPS      N              24.4131534627       -4.6409604477       22.8729271783  MEMB      33              0.0000000000
      3897        33  SAPS      HN1            25.3113209136       -5.1349821212       22.6973208175  MEMB      33              0.0000000000
      3898        33  SAPS      HN2            24.5877535397       -3.6344948069       23.0682263821  MEMB      33              0.0000000000
      3899        33  SAPS      HN3            23.8229670329       -5.0849745813       23.6051374347  MEMB      33              0.0000000000
      3900        33  SAPS      C12            23.6349887729       -4.6067632202       21.5620006635  MEMB      33              0.0000000000
      3901        33  SAPS      H12A           23.6207978918       -5.6177853587       21.1824839628  MEMB      33              0.0000000000
      3902        33  SAPS      C13            22.1558342640       -4.2447499173       21.6323221011  MEMB      33              0.0000000000
      3903        33  SAPS      O13A           21.6063618276       -4.0659406251       22.7084213621  MEMB      33              0.0000000000
      3904        33  SAPS      O13B           21.4840412756       -4.5862270026       20.5985826563  MEMB      33              0.0000000000
      3905        33  SAPS      C11            24.3187912017       -3.7100365770       20.4451145742  MEMB      33              0.0000000000
      3906        33  SAPS      H11A           25.3724706984       -4.0596784453       20.4023255759  MEMB      33              0.0000000000
      3907        33  SAPS      H11B           24.3051642575       -2.6780755520       20.8564438876  MEMB      33              0.0000000000
      3908        33  SAPS      P              24.2766642288       -2.8772129114       18.0041906016  MEMB      33              0.0000000000
      3909        33  SAPS      O13            23.2837953603       -2.2973357168       17.0950702078  MEMB      33              0.0000000000
      3910        33  SAPS      O14            25.2477260422       -1.9857737865       18.6511417433  MEMB      33              0.0000000000
      3911        33  SAPS      O12            23.7380464247       -3.8495022688       19.1702042243  MEMB      33              0.0000000000
      3912        33  SAPS      O11            25.2128794945       -3.8807640531       17.2600247055  MEMB      33              0.0000000000
      3913        33  SAPS      C1             24.5479517070       -5.0608365557       16.7028894595  MEMB      33              0.0000000000
      3914        33  SAPS      HA             24.0355334733       -5.6360869883       17.5034114152  MEMB      33              0.0000000000
      3915        33  SAPS      HB             23.7882009232       -4.7663141733       15.9476700987  MEMB      33              0.0000000000
      3916        33  SAPS      C2             25.5288556356       -6.0001960667       15.9442642272  MEMB      33              0.0000000000
      3917        33  SAPS      HS             26.0659498759       -6.6344422623       16.6815447595  MEMB      33              0.0000000000
      3918        33  SAPS      O21            26.5113758437       -5.1402210769       15.3308563151  MEMB      33              0.0000000000
      3919        33  SAPS      C21            27.5752962842       -5.8248905626       14.9925442615  MEMB      33              0.0000000000
      3920        33  SAPS      O22            27.6849075524       -7.0588822390       15.0896053205  MEMB      33              0.0000000000
      3921        33  SAPS      C22            28.6915328407       -4.9001639049       14.4245127639  MEMB      33              0.0000000000
      3922        33  SAPS      H2R            28.4793450603       -3.8465323280       14.7058633490  MEMB      33              0.0000000000
      3923        33  SAPS      H2S            29.6415007662       -5.3289435522       14.8092590773  MEMB      33              0.0000000000
      3924        33  SAPS      C3             24.7514529175       -6.7962458574       14.9980931198  MEMB      33              0.0000000000
      3925        33  SAPS      HX             24.1574789669       -7.5295869418       15.5843752471  MEMB      33              0.0000000000
      3926        33  SAPS      HY             25.4120714426       -7.4742314036       14.4165090815  MEMB      33              0.0000000000
      3927        33  SAPS      O31            23.7245811810       -6.1754386122       14.1650432579  MEMB      33              0.0000000000
      3928        33  SAPS      C31            24.0889449855       -5.6816281405       13.0294582538  MEMB      33              0.0000000000
      3929        33  SAPS      O32            25.2104617485       -5.7327332676       12.4938512866  MEMB      33              0.0000000000
      3930        33  SAPS      C32            22.8918996462       -5.1084158292       12.3495788009  MEMB      33              0.0000000000
      3931        33  SAPS      H2X            21.8628330595       -5.4869343297       12.5286508991  MEMB      33              0.0000000000
      3932        33  SAPS      H2Y            22.9096607100       -4.9847172563       11.2456296560  MEMB      33              0.0000000000
      3933        33  SAPS      C23            28.6363887022       -4.8937271546       12.8872273601  MEMB      33              0.0000000000
      3934        33  SAPS      H3R            27.6310295403       -4.5665353715       12.5458775328  MEMB      33              0.0000000000
      3935        33  SAPS      H3S            28.7330467339       -5.9295314671       12.4972432268  MEMB      33              0.0000000000
      3936        33  SAPS      C24            29.7035970355       -4.0170157698       12.0652516974  MEMB      33              0.0000000000
      3937        33  SAPS      H4R            29.3877859902       -4.2357273156       11.0227788946  MEMB      33              0.0000000000
      3938        33  SAPS      H4S            30.7386614170       -4.3300859842       12.3201038382  MEMB      33              0.0000000000
      3939        33  SAPS      C25            29.5793678111       -2.4837964677       12.1933678122  MEMB      33              0.0000000000
      3940        33  SAPS      H5R            29.8292598276       -2.0906518823       13.1898575523  MEMB      33              0.0000000000
      3941        33  SAPS      C26            29.0164232261       -1.6121069261       11.3483101710  MEMB      33              0.0000000000
      3942        33  SAPS      H6R            28.9347164780       -0.5639082695       11.6717345396  MEMB      33              0.0000000000
      3943        33  SAPS      C27            28.3271044798       -1.8311653603       10.0489764129  MEMB      33              0.0000000000
      3944        33  SAPS      H7R            29.0305457375       -2.2977083205        9.3265999838  MEMB      33              0.0000000000
      3945        33  SAPS      H7S            28.1178372727       -0.8290353197        9.6173936061  MEMB      33              0.0000000000
      3946        33  SAPS      C28            27.0991804016       -2.6515436265       10.1262027463  MEMB      33              0.0000000000
      3947        33  SAPS      H8R            26.3066478152       -2.3281344498       10.8170716203  MEMB      33              0.0000000000
      3948        33  SAPS      C29            26.7033153922       -3.6871227905        9.3183120006  MEMB      33              0.0000000000
      3949        33  SAPS      H9R            25.7882694319       -4.1359672195        9.7321106940  MEMB      33              0.0000000000
      3950        33  SAPS      C210           27.4132766250       -4.3270198742        8.1248526930  MEMB      33              0.0000000000
      3951        33  SAPS      H10R           27.3103044522       -5.4326690080        8.1603161331  MEMB      33              0.0000000000
      3952        33  SAPS      H10S           28.4921361754       -4.1039612880        7.9812268789  MEMB      33              0.0000000000
      3953        33  SAPS      C211           26.6933536903       -3.9077158042        6.8718805428  MEMB      33              0.0000000000
      3954        33  SAPS      H11R           26.6325986888       -2.8199661188        6.7198621472  MEMB      33              0.0000000000
      3955        33  SAPS      C212           26.3740472726       -4.6581161543        5.8127156370  MEMB      33              0.0000000000
      3956        33  SAPS      H12R           25.9518419771       -4.1185627227        4.9521207825  MEMB      33              0.0000000000
      3957        33  SAPS      C213           26.5725500171       -6.1038808107        5.5559625975  MEMB      33              0.0000000000
      3958        33  SAPS      H13R           25.8790049460       -6.3254022140        4.7167694331  MEMB      33              0.0000000000
      3959        33  SAPS      H13S           26.3508556881       -6.7070126612        6.4622763935  MEMB      33              0.0000000000
      3960        33  SAPS      C214           27.9786520965       -6.3974127301        5.1090108133  MEMB      33              0.0000000000
      3961        33  SAPS      H14R           28.5699869261       -7.0294881710        5.7878359106  MEMB      33              0.0000000000
      3962        33  SAPS      C215           28.4553789710       -6.0010580635        3.9108528168  MEMB      33              0.0000000000
      3963        33  SAPS      H15R           29.5208161435       -6.1263791512        3.6676693959  MEMB      33              0.0000000000
      3964        33  SAPS      C216           27.7317806991       -5.2686161320        2.8514378632  MEMB      33              0.0000000000
      3965        33  SAPS      H16R           28.1375891361       -4.2389012006        2.7548574465  MEMB      33              0.0000000000
      3966        33  SAPS      H16S           26.6690708866       -5.2046049156        3.1690399328  MEMB      33              0.0000000000
      3967        33  SAPS      C217           27.8968457800       -6.0244667875        1.5412391848  MEMB      33              0.0000000000
      3968        33  SAPS      H17R           28.9912913305       -6.1653772273        1.4121896441  MEMB      33              0.0000000000
      3969        33  SAPS      H17S           27.5462976259       -5.5200112560        0.6155178949  MEMB      33              0.0000000000
      3970        33  SAPS      C218           27.3514273048       -7.4730265074        1.5173419947  MEMB      33              0.0000000000
      3971        33  SAPS      H18R           26.3142814859       -7.3270935656        1.8879548276  MEMB      33              0.0000000000
      3972        33  SAPS      H18S           27.8485365223       -7.9532781150        2.3871477595  MEMB      33              0.0000000000
      3973        33  SAPS      C219           27.5030730650       -8.2783056078        0.2549896385  MEMB      33              0.0000000000
      3974        33  SAPS      H19R           26.9229941311       -7.8554077635       -0.5929413931  MEMB      33              0.0000000000
      3975        33  SAPS      H19S           27.0221219667       -9.2604421266        0.4509877749  MEMB      33              0.0000000000
      3976        33  SAPS      C220           28.9575437673       -8.5499557540       -0.2298758132  MEMB      33              0.0000000000
      3977        33  SAPS      H20R           29.3261137126       -7.5957720413       -0.6634764445  MEMB      33              0.0000000000
      3978        33  SAPS      H20S           28.9687438395       -9.3151388638       -1.0352891083  MEMB      33              0.0000000000
      3979        33  SAPS      H20T           29.6683190345       -8.8654924961        0.5635696184  MEMB      33              0.0000000000
      3980        33  SAPS      C33            22.8847942727       -3.7164694399       13.0115727842  MEMB      33              0.0000000000
      3981        33  SAPS      H3X            23.8126147192       -3.1893141397       12.7024166438  MEMB      33              0.0000000000
      3982        33  SAPS      H3Y            22.8940405797       -3.8300561048       14.1167124758  MEMB      33              0.0000000000
      3983        33  SAPS      C34            21.7447962015       -2.8112179779       12.6404057342  MEMB      33              0.0000000000
      3984        33  SAPS      H4X            21.7568142543       -1.9289883627       13.3155707759  MEMB      33              0.0000000000
      3985        33  SAPS      H4Y            20.8053699091       -3.3356733512       12.9174365269  MEMB      33              0.0000000000
      3986        33  SAPS      C35            21.7079929796       -2.3935195005       11.1572359408  MEMB      33              0.0000000000
      3987        33  SAPS      H5X            20.8475327031       -1.7127769815       10.9825396314  MEMB      33              0.0000000000
      3988        33  SAPS      H5Y            21.4495401475       -3.2878147442       10.5508050114  MEMB      33              0.0000000000
      3989        33  SAPS      C36            22.9216006109       -1.5532276304       10.7730252948  MEMB      33              0.0000000000
      3990        33  SAPS      H6X            23.8470895014       -2.1624176945       10.8547501054  MEMB      33              0.0000000000
      3991        33  SAPS      H6Y            22.9647148424       -0.6696401623       11.4451374906  MEMB      33              0.0000000000
      3992        33  SAPS      C37            22.8539476308       -1.1295324521        9.2748610427  MEMB      33              0.0000000000
      3993        33  SAPS      H7X            21.8435565598       -0.7403820195        9.0258776522  MEMB      33              0.0000000000
      3994        33  SAPS      H7Y            22.9354206706       -2.1204243342        8.7790620143  MEMB      33              0.0000000000
      3995        33  SAPS      C38            23.9408190681       -0.1764175434        8.7783271119  MEMB      33              0.0000000000
      3996        33  SAPS      H8X            24.9342818884       -0.6151364462        9.0125887862  MEMB      33              0.0000000000
      3997        33  SAPS      H8Y            23.7804178601        0.8176058716        9.2479118181  MEMB      33              0.0000000000
      3998        33  SAPS      C39            23.8468808223        0.3476060637        7.3034064616  MEMB      33              0.0000000000
      3999        33  SAPS      H9X            24.4162768450        1.2958694455        7.1989750912  MEMB      33              0.0000000000
      4000        33  SAPS      H9Y            22.7918291419        0.5514746235        7.0212283686  MEMB      33              0.0000000000
      4001        33  SAPS      C310           24.4515632206       -0.6573621421        6.3220567063  MEMB      33              0.0000000000
      4002        33  SAPS      H10X           23.9503325942       -1.6432215961        6.2163665813  MEMB      33              0.0000000000
      4003        33  SAPS      H10Y           25.4784511091       -0.8924839108        6.6749592408  MEMB      33              0.0000000000
      4004        33  SAPS      C311           24.6231950267       -0.0957448021        4.7805257906  MEMB      33              0.0000000000
      4005        33  SAPS      H11X           25.2563324040        0.8171881846        4.7839336637  MEMB      33              0.0000000000
      4006        33  SAPS      H11Y           23.6130660091        0.0905285712        4.3571310102  MEMB      33              0.0000000000
      4007        33  SAPS      C312           25.2125750833       -1.2159532287        3.8646108427  MEMB      33              0.0000000000
      4008        33  SAPS      H12X           24.8797798797       -2.2387397867        4.1429547695  MEMB      33              0.0000000000
      4009        33  SAPS      H12Y           26.2635452720       -1.0877942654        4.2012968303  MEMB      33              0.0000000000
      4010        33  SAPS      C313           25.0735805857       -0.8192477925        2.3434411471  MEMB      33              0.0000000000
      4011        33  SAPS      H13X           25.5551288880        0.1819188912        2.3532838650  MEMB      33              0.0000000000
      4012        33  SAPS      H13Y           23.9852590300       -0.6920236253        2.1598898913  MEMB      33              0.0000000000
      4013        33  SAPS      C314           25.8975836638       -1.5862799633        1.4086149487  MEMB      33              0.0000000000
      4014        33  SAPS      H14X           26.9505728917       -1.4706171528        1.7435131737  MEMB      33              0.0000000000
      4015        33  SAPS      H14Y           25.8051144033       -1.0526039175        0.4385838659  MEMB      33              0.0000000000
      4016        33  SAPS      C315           25.4827618487       -3.0083363704        1.2459018947  MEMB      33              0.0000000000
      4017        33  SAPS      H15X           25.5009244846       -3.5218490546        2.2309372404  MEMB      33              0.0000000000
      4018        33  SAPS      H15Y           26.1964183655       -3.5674592832        0.6037195602  MEMB      33              0.0000000000
      4019        33  SAPS      C316           24.0706520587       -3.3169189180        0.5874793441  MEMB      33              0.0000000000
      4020        33  SAPS      H16X           24.0520818285       -2.7885505450       -0.3896596101  MEMB      33              0.0000000000
      4021        33  SAPS      H16Y           23.1953400734       -3.0651063286        1.2236717179  MEMB      33              0.0000000000
      4022        33  SAPS      C317           23.8347779311       -4.8199497361        0.3547575045  MEMB      33              0.0000000000
      4023        33  SAPS      H17X           24.5520035342       -5.3879013950       -0.2755896554  MEMB      33              0.0000000000
      4024        33  SAPS      H17Y           22.8535959212       -4.8071357104       -0.1662402955  MEMB      33              0.0000000000
      4025        33  SAPS      C318           23.7554261448       -5.6040028051        1.6848934765  MEMB      33              0.0000000000
      4026        33  SAPS      H18X           24.6870155002       -5.4428544519        2.2684110564  MEMB      33              0.0000000000
      4027        33  SAPS      H18Y           23.5771447999       -6.6884292651        1.5219331248  MEMB      33              0.0000000000
      4028        33  SAPS      H18Z           22.9101769854       -5.2925042062        2.3351579610  MEMB      33              0.0000000000
      4029        34  CHL1      C3             11.4072577664      -20.7297122046       17.3338150000  MEMB      34              0.0000000000
      4030        34  CHL1      H3             12.1604361158      -21.5458564545       17.3028350000  MEMB      34              0.0000000000
      4031        34  CHL1      O3             10.8854460213      -20.6187555861       18.6661850000  MEMB      34              0.0000000000
      4032        34  CHL1      H3'            11.6102268711      -20.3641568750       19.2419250000  MEMB      34              0.0000000000
      4033        34  CHL1      C4             12.0529062834      -19.4017880558       16.7852050000  MEMB      34              0.0000000000
      4034        34  CHL1      H4A            11.3465080898      -18.6059349451       17.1044850000  MEMB      34              0.0000000000
      4035        34  CHL1      H4B            12.9272513035      -19.1080215739       17.4045150000  MEMB      34              0.0000000000
      4036        34  CHL1      C5             12.3860438462      -19.5031095787       15.3314350000  MEMB      34              0.0000000000
      4037        34  CHL1      C6             13.6559763963      -19.1334867652       15.0081050000  MEMB      34              0.0000000000
      4038        34  CHL1      H6             14.3484769343      -18.8148076454       15.8011250000  MEMB      34              0.0000000000
      4039        34  CHL1      C7             14.1902314984      -19.1612469909       13.6267650000  MEMB      34              0.0000000000
      4040        34  CHL1      H7A            14.8496664768      -18.2768121478       13.4954250000  MEMB      34              0.0000000000
      4041        34  CHL1      H7B            14.6896556523      -20.1320221501       13.4206250000  MEMB      34              0.0000000000
      4042        34  CHL1      C8             12.9976648023      -19.0677568041       12.6074950000  MEMB      34              0.0000000000
      4043        34  CHL1      H8             12.4987456232      -18.0936596726       12.7986350000  MEMB      34              0.0000000000
      4044        34  CHL1      C14            13.4966844229      -19.2938268878       11.1866450000  MEMB      34              0.0000000000
      4045        34  CHL1      H14            13.9814451356      -20.2934883290       11.1905350000  MEMB      34              0.0000000000
      4046        34  CHL1      C15            14.5085790656      -18.2404593552       10.7397150000  MEMB      34              0.0000000000
      4047        34  CHL1      H15A           14.0523759023      -17.2764256471       11.0509150000  MEMB      34              0.0000000000
      4048        34  CHL1      H15B           15.5504479648      -18.3075274676       11.1196150000  MEMB      34              0.0000000000
      4049        34  CHL1      C16            14.4706480276      -18.3475608419        9.1460250000  MEMB      34              0.0000000000
      4050        34  CHL1      H16A           14.0175039493      -17.3788730497        8.8449650000  MEMB      34              0.0000000000
      4051        34  CHL1      H16B           15.4848268864      -18.5460637098        8.7381350000  MEMB      34              0.0000000000
      4052        34  CHL1      C17            13.4426066597      -19.4690392390        8.8446950000  MEMB      34              0.0000000000
      4053        34  CHL1      H17            14.0761835363      -20.3791303154        8.9128650000  MEMB      34              0.0000000000
      4054        34  CHL1      C13            12.4505815668      -19.4536310296       10.0931050000  MEMB      34              0.0000000000
      4055        34  CHL1      C18            11.6053601377      -18.1372978674        9.9834550000  MEMB      34              0.0000000000
      4056        34  CHL1      H18A           12.1738322541      -17.3208598996        9.4888950000  MEMB      34              0.0000000000
      4057        34  CHL1      H18B           10.6932863063      -18.4449875532        9.4286850000  MEMB      34              0.0000000000
      4058        34  CHL1      H18C           11.3711121171      -17.7807986449       11.0092950000  MEMB      34              0.0000000000
      4059        34  CHL1      C12            11.6501417796      -20.7795394776       10.4214450000  MEMB      34              0.0000000000
      4060        34  CHL1      H12A           10.8879378998      -21.0377913830        9.6554950000  MEMB      34              0.0000000000
      4061        34  CHL1      H12B           12.3374231359      -21.6522007763       10.4008450000  MEMB      34              0.0000000000
      4062        34  CHL1      C11            10.9174089643      -20.6087764493       11.8709150000  MEMB      34              0.0000000000
      4063        34  CHL1      H11A           10.1511105921      -19.8046370609       11.8491850000  MEMB      34              0.0000000000
      4064        34  CHL1      H11B           10.3336497920      -21.5457035354       11.9962550000  MEMB      34              0.0000000000
      4065        34  CHL1      C9             11.9343664336      -20.1642265947       12.9544850000  MEMB      34              0.0000000000
      4066        34  CHL1      H9             12.5786001718      -21.0491520636       13.1447250000  MEMB      34              0.0000000000
      4067        34  CHL1      C10            11.3045625566      -19.9584408570       14.3608450000  MEMB      34              0.0000000000
      4068        34  CHL1      C19            10.2104747215      -18.7879112313       14.2585950000  MEMB      34              0.0000000000
      4069        34  CHL1      H19A           10.4539614212      -17.9897675849       13.5251050000  MEMB      34              0.0000000000
      4070        34  CHL1      H19B            9.2018309269      -19.2018492709       14.0450150000  MEMB      34              0.0000000000
      4071        34  CHL1      H19C           10.0760240543      -18.4134276495       15.2958950000  MEMB      34              0.0000000000
      4072        34  CHL1      C1             10.7415289766      -21.2591877380       14.9439050000  MEMB      34              0.0000000000
      4073        34  CHL1      H1A             9.9276921168      -21.5655397252       14.2524150000  MEMB      34              0.0000000000
      4074        34  CHL1      H1B            11.5149028616      -22.0566508384       14.9604450000  MEMB      34              0.0000000000
      4075        34  CHL1      C2             10.2198939228      -21.1043650486       16.3898250000  MEMB      34              0.0000000000
      4076        34  CHL1      H2A             9.6390072238      -21.9878208069       16.7309950000  MEMB      34              0.0000000000
      4077        34  CHL1      H2B             9.4260104439      -20.3289828574       16.4434350000  MEMB      34              0.0000000000
      4078        34  CHL1      C20            12.8625041874      -19.3939580386        7.4289350000  MEMB      34              0.0000000000
      4079        34  CHL1      H20            12.2211814815      -18.4898615788        7.3537950000  MEMB      34              0.0000000000
      4080        34  CHL1      C21            11.9680102789      -20.5007694297        7.0421350000  MEMB      34              0.0000000000
      4081        34  CHL1      H21A           11.1917490350      -20.7150204826        7.8075450000  MEMB      34              0.0000000000
      4082        34  CHL1      H21B           12.6233452894      -21.3957361512        6.9795550000  MEMB      34              0.0000000000
      4083        34  CHL1      H21C           11.4646392880      -20.3626279425        6.0613950000  MEMB      34              0.0000000000
      4084        34  CHL1      C22            13.9624234567      -19.0964012265        6.3421750000  MEMB      34              0.0000000000
      4085        34  CHL1      H22A           14.1840014746      -18.0077576516        6.3502450000  MEMB      34              0.0000000000
      4086        34  CHL1      H22B           14.8422447417      -19.7688242026        6.4321050000  MEMB      34              0.0000000000
      4087        34  CHL1      C23            13.4576829138      -19.3046387832        4.8937350000  MEMB      34              0.0000000000
      4088        34  CHL1      H23A           13.3954156295      -20.4072878984        4.7728150000  MEMB      34              0.0000000000
      4089        34  CHL1      H23B           12.4530504575      -18.8574962469        4.7352950000  MEMB      34              0.0000000000
      4090        34  CHL1      C24            14.3800187029      -18.7495228460        3.8495350000  MEMB      34              0.0000000000
      4091        34  CHL1      H24A           14.3943656050      -17.6388041908        3.8701350000  MEMB      34              0.0000000000
      4092        34  CHL1      H24B           15.3289894812      -19.2316739671        4.1678150000  MEMB      34              0.0000000000
      4093        34  CHL1      C25            13.9880004330      -19.2526400731        2.4458850000  MEMB      34              0.0000000000
      4094        34  CHL1      H25            13.8293333945      -20.3515456732        2.4852050000  MEMB      34              0.0000000000
      4095        34  CHL1      C26            12.6961107425      -18.6438795801        1.8870050000  MEMB      34              0.0000000000
      4096        34  CHL1      H26A           12.7242855034      -17.5437736024        2.0396350000  MEMB      34              0.0000000000
      4097        34  CHL1      H26B           12.5276072699      -18.9215666225        0.8245450000  MEMB      34              0.0000000000
      4098        34  CHL1      H26C           11.8037941955      -19.0211435148        2.4308550000  MEMB      34              0.0000000000
      4099        34  CHL1      C27            15.0639842714      -18.8106149637        1.4281550000  MEMB      34              0.0000000000
      4100        34  CHL1      H27A           14.9307854069      -17.7284730951        1.2146950000  MEMB      34              0.0000000000
      4101        34  CHL1      H27B           16.0794077094      -19.1468184297        1.7284950000  MEMB      34              0.0000000000
      4102        34  CHL1      H27C           14.7847313607      -19.3067225217        0.4740950000  MEMB      34              0.0000000000
      4103        35  SAPE      N               7.9235284165       22.0211733428       23.1189635126  MEMB      35              0.0000000000
      4104        35  SAPE      HN1             7.6840863446       21.0527781070       22.8248918201  MEMB      35              0.0000000000
      4105        35  SAPE      HN2             8.3672453251       21.9940702402       24.0591661937  MEMB      35              0.0000000000
      4106        35  SAPE      HN3             7.0704937856       22.6056830414       23.2297804825  MEMB      35              0.0000000000
      4107        35  SAPE      C12             8.7986979904       22.8663519907       22.2326988464  MEMB      35              0.0000000000
      4108        35  SAPE      H12A            9.7911879602       22.3798934277       22.1202592287  MEMB      35              0.0000000000
      4109        35  SAPE      H12B            9.0704277421       23.8047145180       22.7618111505  MEMB      35              0.0000000000
      4110        35  SAPE      C11             8.1090584702       23.1064686662       20.9541408800  MEMB      35              0.0000000000
      4111        35  SAPE      H11A            7.1816014871       23.7060762655       21.0750346406  MEMB      35              0.0000000000
      4112        35  SAPE      H11B            7.9007542893       22.0891599175       20.5591557122  MEMB      35              0.0000000000
      4113        35  SAPE      P               9.4432013558       23.0747807265       18.7018436568  MEMB      35              0.0000000000
      4114        35  SAPE      O13             9.5650351509       24.0298050666       17.5979982812  MEMB      35              0.0000000000
      4115        35  SAPE      O14            10.6617767922       22.2914756860       19.1307427117  MEMB      35              0.0000000000
      4116        35  SAPE      O12             8.8239624706       23.8468379390       19.9609983950  MEMB      35              0.0000000000
      4117        35  SAPE      O11             8.3184569045       22.0481642068       18.3026137546  MEMB      35              0.0000000000
      4118        35  SAPE      C1              7.0616359321       22.3515425066       17.8098920960  MEMB      35              0.0000000000
      4119        35  SAPE      HA              6.3686466553       22.3655278669       18.6781613844  MEMB      35              0.0000000000
      4120        35  SAPE      HB              7.0355038109       23.3845474871       17.4018004688  MEMB      35              0.0000000000
      4121        35  SAPE      C2              6.6512580516       21.3379865468       16.7822498525  MEMB      35              0.0000000000
      4122        35  SAPE      HS              6.4390725688       20.3540794286       17.2525954084  MEMB      35              0.0000000000
      4123        35  SAPE      O21             7.6663289026       21.1549421054       15.7961371556  MEMB      35              0.0000000000
      4124        35  SAPE      C21             8.5622033248       20.1776936538       15.8550081386  MEMB      35              0.0000000000
      4125        35  SAPE      O22             8.7259472450       19.3754177721       16.7759269666  MEMB      35              0.0000000000
      4126        35  SAPE      C22             9.3860783757       20.1951508299       14.5572825837  MEMB      35              0.0000000000
      4127        35  SAPE      H2R             8.8014314837       19.8028922309       13.6978394998  MEMB      35              0.0000000000
      4128        35  SAPE      H2S             9.5628341673       21.2642911859       14.3122978537  MEMB      35              0.0000000000
      4129        35  SAPE      C3              5.3585159059       21.6095605856       16.0584824833  MEMB      35              0.0000000000
      4130        35  SAPE      HX              4.5146654546       21.6716561682       16.7784697730  MEMB      35              0.0000000000
      4131        35  SAPE      HY              5.1980324015       20.6570666980       15.5095548112  MEMB      35              0.0000000000
      4132        35  SAPE      O31             5.3719504658       22.7600530271       15.2537423670  MEMB      35              0.0000000000
      4133        35  SAPE      C31             4.4844360331       22.7078837486       14.2708009643  MEMB      35              0.0000000000
      4134        35  SAPE      O32             3.7512788864       21.7980436137       13.9468475024  MEMB      35              0.0000000000
      4135        35  SAPE      C32             4.4081775332       24.0341613016       13.5407972810  MEMB      35              0.0000000000
      4136        35  SAPE      H2X             3.9184218130       24.6799981905       14.3006362864  MEMB      35              0.0000000000
      4137        35  SAPE      H2Y             3.8107609655       23.9705951612       12.6062529068  MEMB      35              0.0000000000
      4138        35  SAPE      C23            10.8228839763       19.5675934686       14.8057000038  MEMB      35              0.0000000000
      4139        35  SAPE      H3R            10.7615156054       18.4600695883       14.8685207643  MEMB      35              0.0000000000
      4140        35  SAPE      H3S            11.1995942422       19.8209647710       15.8197087576  MEMB      35              0.0000000000
      4141        35  SAPE      C24            11.8063125939       19.8606292517       13.6520445474  MEMB      35              0.0000000000
      4142        35  SAPE      H4R            11.3739495972       19.4639229067       12.7086424535  MEMB      35              0.0000000000
      4143        35  SAPE      H4S            12.7485857221       19.3583099029       13.9588304380  MEMB      35              0.0000000000
      4144        35  SAPE      C25            12.2598163071       21.2525419247       13.4432617024  MEMB      35              0.0000000000
      4145        35  SAPE      H5R            12.9776938668       21.6966735537       14.1485264230  MEMB      35              0.0000000000
      4146        35  SAPE      C26            11.8733426038       22.0710809807       12.4597739949  MEMB      35              0.0000000000
      4147        35  SAPE      H6R            12.4216935315       23.0120033559       12.3049313104  MEMB      35              0.0000000000
      4148        35  SAPE      C27            10.8945820939       21.7665730053       11.3049938550  MEMB      35              0.0000000000
      4149        35  SAPE      H7R            10.2886620588       22.6599073931       11.0420579023  MEMB      35              0.0000000000
      4150        35  SAPE      H7S            10.2240724991       20.8886055981       11.4229403661  MEMB      35              0.0000000000
      4151        35  SAPE      C28            11.8702777305       21.4639813220       10.1705712411  MEMB      35              0.0000000000
      4152        35  SAPE      H8R            12.4873024801       20.5567324628       10.2491866465  MEMB      35              0.0000000000
      4153        35  SAPE      C29            12.1599803016       22.2144929445        9.0840001152  MEMB      35              0.0000000000
      4154        35  SAPE      H9R            13.0052522156       21.9657422251        8.4254876222  MEMB      35              0.0000000000
      4155        35  SAPE      C210           11.6666196804       23.5254264440        8.5704809359  MEMB      35              0.0000000000
      4156        35  SAPE      H10R           12.5212554785       24.2277893151        8.6734604233  MEMB      35              0.0000000000
      4157        35  SAPE      H10S           11.0236353415       23.9748081911        9.3572141808  MEMB      35              0.0000000000
      4158        35  SAPE      C211           11.0550201646       23.6513354646        7.1840540728  MEMB      35              0.0000000000
      4159        35  SAPE      H11R           11.2035167791       24.5817509853        6.6163608083  MEMB      35              0.0000000000
      4160        35  SAPE      C212           10.3627491570       22.7017985385        6.5400475648  MEMB      35              0.0000000000
      4161        35  SAPE      H12R           10.1398701148       22.8857729637        5.4786906629  MEMB      35              0.0000000000
      4162        35  SAPE      C213            9.9078430360       21.3480601944        6.8871347179  MEMB      35              0.0000000000
      4163        35  SAPE      H13R            9.6544133285       21.2690017419        7.9659511422  MEMB      35              0.0000000000
      4164        35  SAPE      H13S           10.7105863677       20.6025333536        6.7024357598  MEMB      35              0.0000000000
      4165        35  SAPE      C214            8.5700137149       20.9216483216        6.3098922492  MEMB      35              0.0000000000
      4166        35  SAPE      H14R            7.7258991201       21.0268458583        7.0073193470  MEMB      35              0.0000000000
      4167        35  SAPE      C215            8.2466253019       20.4431720432        5.0825601347  MEMB      35              0.0000000000
      4168        35  SAPE      H15R            7.1866717146       20.2167650475        4.8948416672  MEMB      35              0.0000000000
      4169        35  SAPE      C216            9.2234990387       20.1421350353        3.9465440972  MEMB      35              0.0000000000
      4170        35  SAPE      H16R           10.2614132961       19.8629007453        4.2277615111  MEMB      35              0.0000000000
      4171        35  SAPE      H16S            9.3920331771       21.1034260188        3.4156617599  MEMB      35              0.0000000000
      4172        35  SAPE      C217            8.6124493248       19.0968352622        2.9747644491  MEMB      35              0.0000000000
      4173        35  SAPE      H17R            7.5488083766       19.1691937166        2.6621091206  MEMB      35              0.0000000000
      4174        35  SAPE      H17S            8.6973652927       18.1073553187        3.4727998778  MEMB      35              0.0000000000
      4175        35  SAPE      C218            9.4160994269       18.9874022700        1.6597319966  MEMB      35              0.0000000000
      4176        35  SAPE      H18R            9.2242689060       18.0732406611        1.0582086135  MEMB      35              0.0000000000
      4177        35  SAPE      H18S           10.4712314336       18.8456822503        1.9774315823  MEMB      35              0.0000000000
      4178        35  SAPE      C219            9.3464799471       20.2323898831        0.8636509925  MEMB      35              0.0000000000
      4179        35  SAPE      H19R            9.5945008170       21.1478531414        1.4422139356  MEMB      35              0.0000000000
      4180        35  SAPE      H19S            8.3156526510       20.3458241179        0.4650926596  MEMB      35              0.0000000000
      4181        35  SAPE      C220           10.3370991739       20.2069464515       -0.3340863628  MEMB      35              0.0000000000
      4182        35  SAPE      H20R           11.4374249726       20.1711899853       -0.1846702263  MEMB      35              0.0000000000
      4183        35  SAPE      H20S            9.9392949798       21.0642225961       -0.9181677612  MEMB      35              0.0000000000
      4184        35  SAPE      H20T           10.0769693987       19.3001183591       -0.9208708429  MEMB      35              0.0000000000
      4185        35  SAPE      C33             5.8770456805       24.5262036728       13.4145857391  MEMB      35              0.0000000000
      4186        35  SAPE      H3X             6.6251378202       23.7061679824       13.3674659123  MEMB      35              0.0000000000
      4187        35  SAPE      H3Y             6.2034844761       25.1610154569       14.2659215953  MEMB      35              0.0000000000
      4188        35  SAPE      C34             6.0337637931       25.3408109353       12.1218056039  MEMB      35              0.0000000000
      4189        35  SAPE      H4X             5.2648444822       26.1402426215       12.0586122536  MEMB      35              0.0000000000
      4190        35  SAPE      H4Y             5.8979892992       24.5966310140       11.3081209632  MEMB      35              0.0000000000
      4191        35  SAPE      C35             7.4153850976       25.9906713442       11.8939047084  MEMB      35              0.0000000000
      4192        35  SAPE      H5X             8.1292156310       25.1423652367       11.8221855858  MEMB      35              0.0000000000
      4193        35  SAPE      H5Y             7.5600591043       26.5251933188       12.8570645054  MEMB      35              0.0000000000
      4194        35  SAPE      C36             7.5444820658       26.7373442806       10.5989596496  MEMB      35              0.0000000000
      4195        35  SAPE      H6X             8.4854862108       27.3279031118       10.5904579867  MEMB      35              0.0000000000
      4196        35  SAPE      H6Y             6.7484984775       27.5074872662       10.5117181257  MEMB      35              0.0000000000
      4197        35  SAPE      C37             7.5699321882       25.9279610319        9.3198463438  MEMB      35              0.0000000000
      4198        35  SAPE      H7X             6.5200980082       25.5848146061        9.1997632626  MEMB      35              0.0000000000
      4199        35  SAPE      H7Y             8.3179589664       25.1119427083        9.4141398593  MEMB      35              0.0000000000
      4200        35  SAPE      C38             7.8859592892       26.7655261080        8.0351603428  MEMB      35              0.0000000000
      4201        35  SAPE      H8X             8.9299448478       27.0353595871        8.3027512784  MEMB      35              0.0000000000
      4202        35  SAPE      H8Y             7.2003110848       27.6245892727        7.8732412528  MEMB      35              0.0000000000
      4203        35  SAPE      C39             7.6736921990       26.0212592554        6.7283207288  MEMB      35              0.0000000000
      4204        35  SAPE      H9X             8.4235578293       25.2066364026        6.6366046760  MEMB      35              0.0000000000
      4205        35  SAPE      H9Y             7.8229532264       26.7846454715        5.9350465490  MEMB      35              0.0000000000
      4206        35  SAPE      C310            6.2926088785       25.3415125806        6.5264866462  MEMB      35              0.0000000000
      4207        35  SAPE      H10X            5.4671319867       25.9586102508        6.9413354186  MEMB      35              0.0000000000
      4208        35  SAPE      H10Y            6.3125244566       24.4673694852        7.2119052843  MEMB      35              0.0000000000
      4209        35  SAPE      C311            6.0498836451       24.8564463329        5.1300286958  MEMB      35              0.0000000000
      4210        35  SAPE      H11X            6.5424236562       25.6102903140        4.4793026977  MEMB      35              0.0000000000
      4211        35  SAPE      H11Y            4.9455097142       24.8752871440        5.0103435005  MEMB      35              0.0000000000
      4212        35  SAPE      C312            6.6664132009       23.5194661711        4.7659393723  MEMB      35              0.0000000000
      4213        35  SAPE      H12X            6.3523479770       22.6935372322        5.4393822318  MEMB      35              0.0000000000
      4214        35  SAPE      H12Y            7.7462901957       23.7290649721        4.9216794028  MEMB      35              0.0000000000
      4215        35  SAPE      C313            6.1938982541       23.1174041362        3.3653676066  MEMB      35              0.0000000000
      4216        35  SAPE      H13X            5.1251647979       22.8148176348        3.3414650547  MEMB      35              0.0000000000
      4217        35  SAPE      H13Y            6.7246956083       22.2140494093        2.9958738841  MEMB      35              0.0000000000
      4218        35  SAPE      C314            6.3191974296       24.2293970578        2.2992407515  MEMB      35              0.0000000000
      4219        35  SAPE      H14X            7.3591132300       24.5919280971        2.4457579787  MEMB      35              0.0000000000
      4220        35  SAPE      H14Y            5.5431587318       25.0237548898        2.3321079397  MEMB      35              0.0000000000
      4221        35  SAPE      C315            6.1757926019       23.6802094898        0.9003523905  MEMB      35              0.0000000000
      4222        35  SAPE      H15X            5.1582991294       23.2495276495        0.7839857365  MEMB      35              0.0000000000
      4223        35  SAPE      H15Y            6.9469387771       22.8871875843        0.7965720569  MEMB      35              0.0000000000
      4224        35  SAPE      C316            6.4758532120       24.6558187697       -0.2214667180  MEMB      35              0.0000000000
      4225        35  SAPE      H16X            5.8865954048       25.5960291376       -0.1657832037  MEMB      35              0.0000000000
      4226        35  SAPE      H16Y            6.0817584122       24.2354793684       -1.1713755534  MEMB      35              0.0000000000
      4227        35  SAPE      C317            7.9187367562       25.0276613066       -0.3992353867  MEMB      35              0.0000000000
      4228        35  SAPE      H17X            8.5507089331       24.2603905345        0.0969774465  MEMB      35              0.0000000000
      4229        35  SAPE      H17Y            8.0878502847       25.9982997768        0.1141685770  MEMB      35              0.0000000000
      4230        35  SAPE      C318            8.3930695873       25.1255838284       -1.7788879598  MEMB      35              0.0000000000
      4231        35  SAPE      H18X            9.4721539409       25.3673141680       -1.8859604465  MEMB      35              0.0000000000
      4232        35  SAPE      H18Y            7.7806639166       25.8765910425       -2.3222743888  MEMB      35              0.0000000000
      4233        35  SAPE      H18Z            8.1874898733       24.1886850690       -2.3394935385  MEMB      35              0.0000000000
      4234        36  SAPI      C12            21.8810110907      -15.3187801740       22.3432222410  MEMB      36              0.0000000000
      4235        36  SAPI      H2             22.5768242629      -15.5541886813       21.5097068518  MEMB      36              0.0000000000
      4236        36  SAPI      O2             20.5974479788      -15.7844382258       21.9434161125  MEMB      36              0.0000000000
      4237        36  SAPI      HO2            20.6701919820      -16.1101625460       21.0432982407  MEMB      36              0.0000000000
      4238        36  SAPI      C13            22.5528701920      -16.1356353775       23.4706892292  MEMB      36              0.0000000000
      4239        36  SAPI      H3             23.6161475740      -15.8400859294       23.5988020501  MEMB      36              0.0000000000
      4240        36  SAPI      O3             22.4944158290      -17.5264509756       23.3332939533  MEMB      36              0.0000000000
      4241        36  SAPI      HO3            21.5907852139      -17.8302173002       23.2202573341  MEMB      36              0.0000000000
      4242        36  SAPI      C14            21.8542417640      -15.6859802833       24.7229357353  MEMB      36              0.0000000000
      4243        36  SAPI      H4             20.7874413932      -15.9959117499       24.7087671961  MEMB      36              0.0000000000
      4244        36  SAPI      O4             22.3882265505      -16.3377136945       25.8362228340  MEMB      36              0.0000000000
      4245        36  SAPI      HO4            23.3277676601      -16.1434833623       25.8025020701  MEMB      36              0.0000000000
      4246        36  SAPI      C15            21.8685025554      -14.2143902366       25.0306410599  MEMB      36              0.0000000000
      4247        36  SAPI      H5             22.9259879930      -13.9025951075       25.1678609967  MEMB      36              0.0000000000
      4248        36  SAPI      O5             21.1643204010      -13.9696611748       26.2353987222  MEMB      36              0.0000000000
      4249        36  SAPI      HO5            20.2091334460      -13.9244250835       26.1507137610  MEMB      36              0.0000000000
      4250        36  SAPI      C16            21.1733359754      -13.4762969409       23.8353019148  MEMB      36              0.0000000000
      4251        36  SAPI      H6             20.1128484375      -13.8031762490       23.7820383295  MEMB      36              0.0000000000
      4252        36  SAPI      O6             21.1386328599      -12.1028462112       24.0424813823  MEMB      36              0.0000000000
      4253        36  SAPI      HO6            21.7480258511      -11.6830369486       23.4309256792  MEMB      36              0.0000000000
      4254        36  SAPI      C11            21.9779990894      -13.8119858899       22.5421889031  MEMB      36              0.0000000000
      4255        36  SAPI      H1             23.0534768731      -13.6253483162       22.7491558516  MEMB      36              0.0000000000
      4256        36  SAPI      P              22.3746838587      -12.2858728736       20.4372245861  MEMB      36              0.0000000000
      4257        36  SAPI      O13            23.3772263592      -13.1490370611       19.7660950128  MEMB      36              0.0000000000
      4258        36  SAPI      O14            22.9006080986      -11.1587153251       21.2240806249  MEMB      36              0.0000000000
      4259        36  SAPI      O12            21.4148618323      -13.2177810735       21.3841773785  MEMB      36              0.0000000000
      4260        36  SAPI      O11            21.3230361398      -11.8173498569       19.4011756186  MEMB      36              0.0000000000
      4261        36  SAPI      C1             20.1077012643      -11.2523135588       19.8783766729  MEMB      36              0.0000000000
      4262        36  SAPI      HA             19.4702185109      -12.0893269770       20.2352314250  MEMB      36              0.0000000000
      4263        36  SAPI      HB             20.3429751091      -10.5433567184       20.7007800671  MEMB      36              0.0000000000
      4264        36  SAPI      C2             19.4067472060      -10.2954702554       18.9067312470  MEMB      36              0.0000000000
      4265        36  SAPI      HS             18.3653537011      -10.1568860999       19.2681378568  MEMB      36              0.0000000000
      4266        36  SAPI      O21            19.4657310940      -10.8010656780       17.5441355485  MEMB      36              0.0000000000
      4267        36  SAPI      C21            18.4092981663      -10.4947539849       16.8425702597  MEMB      36              0.0000000000
      4268        36  SAPI      O22            17.4440782493       -9.8613885947       17.1973633385  MEMB      36              0.0000000000
      4269        36  SAPI      C22            18.4306997177      -11.1652262418       15.4425628049  MEMB      36              0.0000000000
      4270        36  SAPI      H2R            19.3820244245      -11.6564840105       15.1459685262  MEMB      36              0.0000000000
      4271        36  SAPI      H2S            17.8077495821      -12.0800043613       15.5396974341  MEMB      36              0.0000000000
      4272        36  SAPI      C3             20.0970216436       -8.9100375965       19.0021388595  MEMB      36              0.0000000000
      4273        36  SAPI      HX             19.9738518630       -8.4096265972       19.9863842442  MEMB      36              0.0000000000
      4274        36  SAPI      HY             19.4997605498       -8.3158446026       18.2778908230  MEMB      36              0.0000000000
      4275        36  SAPI      O31            21.4839635638       -8.9956232957       18.6133174552  MEMB      36              0.0000000000
      4276        36  SAPI      C31            21.9387981486       -8.5283566629       17.4772357472  MEMB      36              0.0000000000
      4277        36  SAPI      O32            21.2639728789       -7.8722347216       16.6722555325  MEMB      36              0.0000000000
      4278        36  SAPI      C32            23.3695864757       -8.9680470637       17.1274102553  MEMB      36              0.0000000000
      4279        36  SAPI      H2X            23.5440119015      -10.0405476110       17.3590116379  MEMB      36              0.0000000000
      4280        36  SAPI      H2Y            24.0555767596       -8.3314047493       17.7260960214  MEMB      36              0.0000000000
      4281        36  SAPI      C23            18.0173948965      -10.0944323911       14.4089266738  MEMB      36              0.0000000000
      4282        36  SAPI      H3R            18.8628846792       -9.3786742802       14.3243203031  MEMB      36              0.0000000000
      4283        36  SAPI      H3S            17.0730950230       -9.6021821759       14.7256415175  MEMB      36              0.0000000000
      4284        36  SAPI      C24            17.7317161973      -10.8046575580       13.0547464437  MEMB      36              0.0000000000
      4285        36  SAPI      H4R            16.7401236781      -10.4072006587       12.7496343630  MEMB      36              0.0000000000
      4286        36  SAPI      H4S            17.5486744379      -11.8981964417       13.1253838298  MEMB      36              0.0000000000
      4287        36  SAPI      C25            18.8106860827      -10.4654667635       12.1458975122  MEMB      36              0.0000000000
      4288        36  SAPI      H5R            19.8205749190      -10.3448498800       12.5649158535  MEMB      36              0.0000000000
      4289        36  SAPI      C26            18.7409880160      -10.1319402945       10.8587347759  MEMB      36              0.0000000000
      4290        36  SAPI      H6R            19.7248905511       -9.8832429111       10.4343698713  MEMB      36              0.0000000000
      4291        36  SAPI      C27            17.4159608758      -10.0494737718       10.0491689800  MEMB      36              0.0000000000
      4292        36  SAPI      H7R            17.1107010720       -9.0172764141       10.3243169296  MEMB      36              0.0000000000
      4293        36  SAPI      H7S            16.5642055858      -10.6453575508       10.4412874596  MEMB      36              0.0000000000
      4294        36  SAPI      C28            17.6541457992      -10.2456180444        8.5523916112  MEMB      36              0.0000000000
      4295        36  SAPI      H8R            17.6543252171       -9.2980706661        7.9936842397  MEMB      36              0.0000000000
      4296        36  SAPI      C29            17.7953032597      -11.4173880976        7.8446823803  MEMB      36              0.0000000000
      4297        36  SAPI      H9R            18.0422004086      -11.2948045615        6.7797812993  MEMB      36              0.0000000000
      4298        36  SAPI      C210           17.7990429255      -12.8504647137        8.2989218802  MEMB      36              0.0000000000
      4299        36  SAPI      H10R           16.9407305580      -12.9626919269        8.9953599934  MEMB      36              0.0000000000
      4300        36  SAPI      H10S           18.7187033787      -12.9955388312        8.9051393434  MEMB      36              0.0000000000
      4301        36  SAPI      C211           17.7202363368      -14.0889827407        7.3911230970  MEMB      36              0.0000000000
      4302        36  SAPI      H11R           16.7045156571      -14.4748972954        7.2197112651  MEMB      36              0.0000000000
      4303        36  SAPI      C212           18.7410094958      -14.7649810320        6.8539115165  MEMB      36              0.0000000000
      4304        36  SAPI      H12R           18.4733771780      -15.6065116082        6.1980159812  MEMB      36              0.0000000000
      4305        36  SAPI      C213           20.1927533951      -14.4080164054        6.9780461101  MEMB      36              0.0000000000
      4306        36  SAPI      H13R           20.4719242727      -14.5842060448        8.0388669542  MEMB      36              0.0000000000
      4307        36  SAPI      H13S           20.3218249232      -13.3460758815        6.6781388870  MEMB      36              0.0000000000
      4308        36  SAPI      C214           21.2618464151      -15.2860193439        6.3418243679  MEMB      36              0.0000000000
      4309        36  SAPI      H14R           21.6660792050      -15.9494392659        7.1205866935  MEMB      36              0.0000000000
      4310        36  SAPI      C215           21.9164349573      -15.2202848373        5.1327142011  MEMB      36              0.0000000000
      4311        36  SAPI      H15R           22.6790493057      -15.9992976910        4.9858865819  MEMB      36              0.0000000000
      4312        36  SAPI      C216           21.7579060309      -14.1951507687        4.0609111153  MEMB      36              0.0000000000
      4313        36  SAPI      H16R           22.7632607784      -14.0851620576        3.6010351905  MEMB      36              0.0000000000
      4314        36  SAPI      H16S           21.2945407849      -13.2073996930        4.2705813310  MEMB      36              0.0000000000
      4315        36  SAPI      C217           20.9093868986      -14.6875934861        2.8488097974  MEMB      36              0.0000000000
      4316        36  SAPI      H17R           21.4221210228      -15.6131941212        2.5101531974  MEMB      36              0.0000000000
      4317        36  SAPI      H17S           21.0098825007      -13.8925319264        2.0793295036  MEMB      36              0.0000000000
      4318        36  SAPI      C218           19.3514467265      -14.8134849725        3.1070021216  MEMB      36              0.0000000000
      4319        36  SAPI      H18R           19.1086160315      -15.6113247416        3.8410345415  MEMB      36              0.0000000000
      4320        36  SAPI      H18S           18.8668405175      -15.1061408575        2.1510573110  MEMB      36              0.0000000000
      4321        36  SAPI      C219           18.6481504026      -13.5019907705        3.4421730031  MEMB      36              0.0000000000
      4322        36  SAPI      H19R           18.9227262968      -13.3237024790        4.5038421177  MEMB      36              0.0000000000
      4323        36  SAPI      H19S           17.5483736151      -13.5993597439        3.3183515041  MEMB      36              0.0000000000
      4324        36  SAPI      C220           19.0531563606      -12.2232085032        2.7209371280  MEMB      36              0.0000000000
      4325        36  SAPI      H20R           19.1824616311      -12.2400992966        1.6176170153  MEMB      36              0.0000000000
      4326        36  SAPI      H20S           20.0108705382      -11.8084825222        3.1018667126  MEMB      36              0.0000000000
      4327        36  SAPI      H20T           18.3240934218      -11.3927272999        2.8353450107  MEMB      36              0.0000000000
      4328        36  SAPI      C33            23.6640225012       -8.6849615901       15.6488819001  MEMB      36              0.0000000000
      4329        36  SAPI      H3X            24.7570609107       -8.8364682289       15.5199099894  MEMB      36              0.0000000000
      4330        36  SAPI      H3Y            23.4687503991       -7.6274264557       15.3699392639  MEMB      36              0.0000000000
      4331        36  SAPI      C34            23.0477021082       -9.7391099143       14.7365988118  MEMB      36              0.0000000000
      4332        36  SAPI      H4X            21.9691062786       -9.5687770806       14.5318092083  MEMB      36              0.0000000000
      4333        36  SAPI      H4Y            23.1803506606      -10.7319564258       15.2172037735  MEMB      36              0.0000000000
      4334        36  SAPI      C35            23.7633482589       -9.8207429101       13.3746023219  MEMB      36              0.0000000000
      4335        36  SAPI      H5X            23.7472886251      -10.7916249049       12.8347401436  MEMB      36              0.0000000000
      4336        36  SAPI      H5Y            24.8215988801       -9.5127243540       13.5144274663  MEMB      36              0.0000000000
      4337        36  SAPI      C36            23.2010911009       -8.8619375268       12.3825411789  MEMB      36              0.0000000000
      4338        36  SAPI      H6X            23.0991706036       -7.8410012430       12.8087128586  MEMB      36              0.0000000000
      4339        36  SAPI      H6Y            22.1327306858       -9.0512031189       12.1435739633  MEMB      36              0.0000000000
      4340        36  SAPI      C37            23.9993478676       -8.7492255297       11.1093058777  MEMB      36              0.0000000000
      4341        36  SAPI      H7X            25.0822134320       -8.5645799978       11.2755261087  MEMB      36              0.0000000000
      4342        36  SAPI      H7Y            23.6900859304       -7.8659805573       10.5105100082  MEMB      36              0.0000000000
      4343        36  SAPI      C38            23.9044179787       -9.9406309175       10.2007951615  MEMB      36              0.0000000000
      4344        36  SAPI      H8X            22.8797904880      -10.3476227649       10.3379705367  MEMB      36              0.0000000000
      4345        36  SAPI      H8Y            24.7606056578      -10.5804991587       10.5038328338  MEMB      36              0.0000000000
      4346        36  SAPI      C39            24.0231230781       -9.5432795339        8.6742794975  MEMB      36              0.0000000000
      4347        36  SAPI      H9X            24.8163001902       -8.8142778235        8.4027146132  MEMB      36              0.0000000000
      4348        36  SAPI      H9Y            23.0371417588       -9.2002617273        8.2941469866  MEMB      36              0.0000000000
      4349        36  SAPI      C310           24.1973384457      -10.8825568889        7.9479621798  MEMB      36              0.0000000000
      4350        36  SAPI      H10X           23.2823013769      -11.4475019948        8.2270055160  MEMB      36              0.0000000000
      4351        36  SAPI      H10Y           25.1103916498      -11.4360946232        8.2549647902  MEMB      36              0.0000000000
      4352        36  SAPI      C311           24.1245271403      -10.6986315797        6.4299273786  MEMB      36              0.0000000000
      4353        36  SAPI      H11X           23.5590632089       -9.8000266516        6.1026955502  MEMB      36              0.0000000000
      4354        36  SAPI      H11Y           23.5069407747      -11.5530438276        6.0793738944  MEMB      36              0.0000000000
      4355        36  SAPI      C312           25.3904808182      -10.7184101225        5.6411138371  MEMB      36              0.0000000000
      4356        36  SAPI      H12X           25.8277451951      -11.7148354642        5.8652954853  MEMB      36              0.0000000000
      4357        36  SAPI      H12Y           26.0155602304       -9.8746452830        6.0039604334  MEMB      36              0.0000000000
      4358        36  SAPI      C313           25.1391950525      -10.5391030448        4.1270369749  MEMB      36              0.0000000000
      4359        36  SAPI      H13X           26.1433559337      -10.4557303257        3.6590295791  MEMB      36              0.0000000000
      4360        36  SAPI      H13Y           24.5501632662       -9.6047230020        4.0074676137  MEMB      36              0.0000000000
      4361        36  SAPI      C314           24.5162113178      -11.8008336969        3.5221038641  MEMB      36              0.0000000000
      4362        36  SAPI      H14X           23.5085700337      -11.8930206974        3.9808868500  MEMB      36              0.0000000000
      4363        36  SAPI      H14Y           25.1438412138      -12.6747548305        3.7989855567  MEMB      36              0.0000000000
      4364        36  SAPI      C315           24.2955753847      -11.5817753009        2.0071895107  MEMB      36              0.0000000000
      4365        36  SAPI      H15X           25.3274459478      -11.4100846600        1.6329074556  MEMB      36              0.0000000000
      4366        36  SAPI      H15Y           23.6527880221      -10.6921101163        1.8350234058  MEMB      36              0.0000000000
      4367        36  SAPI      C316           23.6300403467      -12.6803383319        1.2766796287  MEMB      36              0.0000000000
      4368        36  SAPI      H16X           22.5338230049      -12.5192947421        1.1948661423  MEMB      36              0.0000000000
      4369        36  SAPI      H16Y           23.8848929230      -13.7045445778        1.6236280672  MEMB      36              0.0000000000
      4370        36  SAPI      C317           24.2476150854      -12.6227746993       -0.0998623953  MEMB      36              0.0000000000
      4371        36  SAPI      H17X           25.2440162546      -13.1110960185       -0.1550645631  MEMB      36              0.0000000000
      4372        36  SAPI      H17Y           24.4343876779      -11.5507553064       -0.3239421088  MEMB      36              0.0000000000
      4373        36  SAPI      C318           23.4090604879      -13.1720156246       -1.2198626673  MEMB      36              0.0000000000
      4374        36  SAPI      H18X           22.5854623090      -13.8070354584       -0.8290213454  MEMB      36              0.0000000000
      4375        36  SAPI      H18Y           24.0116944761      -13.8028611119       -1.9077489649  MEMB      36              0.0000000000
      4376        36  SAPI      H18Z           23.1035487033      -12.3084394096       -1.8485295103  MEMB      36              0.0000000000
      4377        37  SAPE      N              -4.0695030923      -27.6122881044       21.4174665002  MEMB      37              0.0000000000
      4378        37  SAPE      HN1            -3.5421613284      -26.9874151957       22.0601519301  MEMB      37              0.0000000000
      4379        37  SAPE      HN2            -5.0425416253      -27.7707487166       21.7486555532  MEMB      37              0.0000000000
      4380        37  SAPE      HN3            -3.6328864937      -28.5525612172       21.3346901972  MEMB      37              0.0000000000
      4381        37  SAPE      C12            -4.0835854626      -26.9248412276       20.0172649362  MEMB      37              0.0000000000
      4382        37  SAPE      H12A           -4.3232164192      -27.7661186524       19.3323196938  MEMB      37              0.0000000000
      4383        37  SAPE      H12B           -3.0824113153      -26.4615645288       19.8855602422  MEMB      37              0.0000000000
      4384        37  SAPE      C11            -5.1550368059      -25.7381622060       19.8198592567  MEMB      37              0.0000000000
      4385        37  SAPE      H11A           -6.1717820321      -26.0810507533       20.1079175266  MEMB      37              0.0000000000
      4386        37  SAPE      H11B           -5.2168737771      -25.6752828343       18.7123650446  MEMB      37              0.0000000000
      4387        37  SAPE      P              -4.0154590044      -23.4210976955       19.7725320202  MEMB      37              0.0000000000
      4388        37  SAPE      O13            -3.5913256926      -22.3765547339       20.7189706658  MEMB      37              0.0000000000
      4389        37  SAPE      O14            -2.9536250135      -24.0650149873       18.9030566016  MEMB      37              0.0000000000
      4390        37  SAPE      O12            -4.6700249837      -24.5967907157       20.5914132737  MEMB      37              0.0000000000
      4391        37  SAPE      O11            -5.0822624255      -22.8632047299       18.7594367392  MEMB      37              0.0000000000
      4392        37  SAPE      C1             -6.2525128191      -22.3146108302       19.4555092982  MEMB      37              0.0000000000
      4393        37  SAPE      HA             -6.7533731693      -23.0671508627       20.1013757755  MEMB      37              0.0000000000
      4394        37  SAPE      HB             -6.0107449809      -21.3963647323       20.0323050290  MEMB      37              0.0000000000
      4395        37  SAPE      C2             -7.2902646883      -21.9424571533       18.3714943410  MEMB      37              0.0000000000
      4396        37  SAPE      HS             -8.2969745659      -22.0375367024       18.8317285578  MEMB      37              0.0000000000
      4397        37  SAPE      O21            -7.2088473340      -22.9768645098       17.3020623686  MEMB      37              0.0000000000
      4398        37  SAPE      C21            -7.6159171200      -24.1510378563       17.5275017628  MEMB      37              0.0000000000
      4399        37  SAPE      O22            -8.0717730503      -24.6381271594       18.5402811897  MEMB      37              0.0000000000
      4400        37  SAPE      C22            -7.5904598003      -24.7993317256       16.2188868039  MEMB      37              0.0000000000
      4401        37  SAPE      H2R            -7.3565911489      -24.1022409973       15.3860058411  MEMB      37              0.0000000000
      4402        37  SAPE      H2S            -6.8225240816      -25.5996055565       16.2833681311  MEMB      37              0.0000000000
      4403        37  SAPE      C3             -7.0619022179      -20.5020760416       17.8215191630  MEMB      37              0.0000000000
      4404        37  SAPE      HX             -7.1319074979      -19.8236528730       18.6985380102  MEMB      37              0.0000000000
      4405        37  SAPE      HY             -7.8179102606      -20.1833579244       17.0723921383  MEMB      37              0.0000000000
      4406        37  SAPE      O31            -5.7000891142      -20.2342922689       17.3103900776  MEMB      37              0.0000000000
      4407        37  SAPE      C31            -5.4837606583      -20.7493446875       16.1395471171  MEMB      37              0.0000000000
      4408        37  SAPE      O32            -6.3102584119      -21.1539878414       15.3485543407  MEMB      37              0.0000000000
      4409        37  SAPE      C32            -3.9817352792      -20.8056335349       15.9030633324  MEMB      37              0.0000000000
      4410        37  SAPE      H2X            -3.4463991773      -21.2871183996       16.7491771758  MEMB      37              0.0000000000
      4411        37  SAPE      H2Y            -3.5137111194      -19.8845660055       15.4945183973  MEMB      37              0.0000000000
      4412        37  SAPE      C23            -8.9277654456      -25.4420766446       15.9206459010  MEMB      37              0.0000000000
      4413        37  SAPE      H3R            -9.8267525406      -24.8233687448       16.1288371955  MEMB      37              0.0000000000
      4414        37  SAPE      H3S            -8.9953158139      -26.2457227705       16.6847866590  MEMB      37              0.0000000000
      4415        37  SAPE      C24            -8.9959060862      -26.1496953723       14.5177153373  MEMB      37              0.0000000000
      4416        37  SAPE      H4R            -9.9381064307      -26.7380450575       14.5383058750  MEMB      37              0.0000000000
      4417        37  SAPE      H4S            -8.1287854997      -26.8440461527       14.5004063763  MEMB      37              0.0000000000
      4418        37  SAPE      C25            -9.0518926290      -25.0911243512       13.3446184274  MEMB      37              0.0000000000
      4419        37  SAPE      H5R            -9.7197708482      -24.2174707743       13.3704612391  MEMB      37              0.0000000000
      4420        37  SAPE      C26            -8.3358860267      -25.1636159841       12.2412112058  MEMB      37              0.0000000000
      4421        37  SAPE      H6R            -8.3255500547      -24.3264397591       11.5277481736  MEMB      37              0.0000000000
      4422        37  SAPE      C27            -7.4597860393      -26.3470911134       12.0052314165  MEMB      37              0.0000000000
      4423        37  SAPE      H7R            -7.4813743620      -27.1957209802       12.7219480993  MEMB      37              0.0000000000
      4424        37  SAPE      H7S            -6.4208228550      -25.9541167237       12.0263805798  MEMB      37              0.0000000000
      4425        37  SAPE      C28            -7.6213135934      -26.9128150885       10.6064192053  MEMB      37              0.0000000000
      4426        37  SAPE      H8R            -8.6120263550      -27.3519243708       10.4175521198  MEMB      37              0.0000000000
      4427        37  SAPE      C29            -6.8214981099      -26.8510445673        9.5376512936  MEMB      37              0.0000000000
      4428        37  SAPE      H9R            -7.1254424186      -27.2805987290        8.5716797395  MEMB      37              0.0000000000
      4429        37  SAPE      C210           -5.4806412878      -26.1664108152        9.5384297660  MEMB      37              0.0000000000
      4430        37  SAPE      H10R           -5.2197616425      -26.1682598895        8.4584954101  MEMB      37              0.0000000000
      4431        37  SAPE      H10S           -4.6722932131      -26.7837872283        9.9853540334  MEMB      37              0.0000000000
      4432        37  SAPE      C211           -5.1413876910      -24.7780910920       10.0341123246  MEMB      37              0.0000000000
      4433        37  SAPE      H11R           -4.3384410996      -24.9009764069       10.7758508005  MEMB      37              0.0000000000
      4434        37  SAPE      C212           -5.3916374158      -23.5657495962        9.4815634367  MEMB      37              0.0000000000
      4435        37  SAPE      H12R           -5.0441787456      -22.6345639891        9.9529086108  MEMB      37              0.0000000000
      4436        37  SAPE      C213           -6.1787876424      -23.2061404855        8.2061076542  MEMB      37              0.0000000000
      4437        37  SAPE      H13R           -5.9529738115      -23.9468877734        7.4094759333  MEMB      37              0.0000000000
      4438        37  SAPE      H13S           -5.7931751642      -22.2294138317        7.8433001145  MEMB      37              0.0000000000
      4439        37  SAPE      C214           -7.6424222926      -22.9884652472        8.3580853204  MEMB      37              0.0000000000
      4440        37  SAPE      H14R           -7.9294486468      -22.3458122243        9.2034326204  MEMB      37              0.0000000000
      4441        37  SAPE      C215           -8.5943030335      -23.5402552448        7.5499332499  MEMB      37              0.0000000000
      4442        37  SAPE      H15R           -9.6113955163      -23.2655125143        7.8662236101  MEMB      37              0.0000000000
      4443        37  SAPE      C216           -8.4503085312      -24.4867878540        6.3337531574  MEMB      37              0.0000000000
      4444        37  SAPE      H16R           -9.0954667181      -25.3902597977        6.3765326894  MEMB      37              0.0000000000
      4445        37  SAPE      H16S           -7.4230590991      -24.8880258328        6.1992621541  MEMB      37              0.0000000000
      4446        37  SAPE      C217           -8.7957774162      -23.7678842576        4.9190239374  MEMB      37              0.0000000000
      4447        37  SAPE      H17R           -8.2012674118      -22.8299328458        4.8854693363  MEMB      37              0.0000000000
      4448        37  SAPE      H17S           -9.8805934929      -23.5297524431        4.9471050572  MEMB      37              0.0000000000
      4449        37  SAPE      C218           -8.5000414445      -24.6709041586        3.6989601127  MEMB      37              0.0000000000
      4450        37  SAPE      H18R           -8.8448077348      -25.6842850034        3.9964775893  MEMB      37              0.0000000000
      4451        37  SAPE      H18S           -7.4239360784      -24.7402269096        3.4315423750  MEMB      37              0.0000000000
      4452        37  SAPE      C219           -9.3893694733      -24.2501627894        2.5437391688  MEMB      37              0.0000000000
      4453        37  SAPE      H19R          -10.4348223910      -24.5897575680        2.7050600845  MEMB      37              0.0000000000
      4454        37  SAPE      H19S           -8.9727514772      -24.8305431213        1.6929096837  MEMB      37              0.0000000000
      4455        37  SAPE      C220           -9.3981721471      -22.7944980497        2.2145322775  MEMB      37              0.0000000000
      4456        37  SAPE      H20R           -9.5862183967      -22.0536738299        3.0208442536  MEMB      37              0.0000000000
      4457        37  SAPE      H20S          -10.1055653433      -22.5388981934        1.3968609226  MEMB      37              0.0000000000
      4458        37  SAPE      H20T           -8.4334792510      -22.5310366012        1.7305104656  MEMB      37              0.0000000000
      4459        37  SAPE      C33            -3.8657902793      -21.7172559663       14.7105688914  MEMB      37              0.0000000000
      4460        37  SAPE      H3X            -4.3334959173      -21.2036376250       13.8435231856  MEMB      37              0.0000000000
      4461        37  SAPE      H3Y            -4.2551435970      -22.7048713930       15.0381977672  MEMB      37              0.0000000000
      4462        37  SAPE      C34            -2.4737046097      -21.9241320846       14.2085969825  MEMB      37              0.0000000000
      4463        37  SAPE      H4X            -2.3784061329      -22.7892356458       13.5180647769  MEMB      37              0.0000000000
      4464        37  SAPE      H4Y            -1.8080812089      -22.1126903981       15.0779143174  MEMB      37              0.0000000000
      4465        37  SAPE      C35            -1.8679109004      -20.6952690266       13.4271613637  MEMB      37              0.0000000000
      4466        37  SAPE      H5X            -1.8831073266      -19.9654317801       14.2646741467  MEMB      37              0.0000000000
      4467        37  SAPE      H5Y            -2.4858431401      -20.3844448530       12.5577540465  MEMB      37              0.0000000000
      4468        37  SAPE      C36            -0.3723187147      -20.8453798981       13.0411457327  MEMB      37              0.0000000000
      4469        37  SAPE      H6X             0.2012585777      -21.5195636991       13.7125670492  MEMB      37              0.0000000000
      4470        37  SAPE      H6Y             0.0574643821      -19.8227288371       13.1027270659  MEMB      37              0.0000000000
      4471        37  SAPE      C37            -0.2062792123      -21.4245968491       11.6384763618  MEMB      37              0.0000000000
      4472        37  SAPE      H7X             0.8888194814      -21.3548652207       11.4646445110  MEMB      37              0.0000000000
      4473        37  SAPE      H7Y            -0.6524481523      -20.6750900279       10.9503673800  MEMB      37              0.0000000000
      4474        37  SAPE      C38            -0.8603158258      -22.7732578746       11.3240958050  MEMB      37              0.0000000000
      4475        37  SAPE      H8X            -1.9627179638      -22.6681218236       11.4134086739  MEMB      37              0.0000000000
      4476        37  SAPE      H8Y            -0.6006223161      -23.5634085683       12.0606699284  MEMB      37              0.0000000000
      4477        37  SAPE      C39            -0.5494926790      -23.3206044673        9.8977465937  MEMB      37              0.0000000000
      4478        37  SAPE      H9X             0.5186901774      -23.6212152489        9.8435256705  MEMB      37              0.0000000000
      4479        37  SAPE      H9Y            -0.8407288901      -22.4731843928        9.2409495908  MEMB      37              0.0000000000
      4480        37  SAPE      C310           -1.4283528449      -24.4970222833        9.5142196178  MEMB      37              0.0000000000
      4481        37  SAPE      H10X           -2.4504823092      -24.1729548142        9.8049990450  MEMB      37              0.0000000000
      4482        37  SAPE      H10Y           -1.2308838163      -25.3919008195       10.1423267373  MEMB      37              0.0000000000
      4483        37  SAPE      C311           -1.4789022512      -24.9106348797        8.0488092630  MEMB      37              0.0000000000
      4484        37  SAPE      H11X           -2.0925210103      -25.8367196698        8.0361654499  MEMB      37              0.0000000000
      4485        37  SAPE      H11Y           -0.4555454775      -25.0601154080        7.6429556153  MEMB      37              0.0000000000
      4486        37  SAPE      C312           -2.3416414360      -23.9733244333        7.1199128326  MEMB      37              0.0000000000
      4487        37  SAPE      H12X           -1.7290315923      -23.1027303754        6.8019565224  MEMB      37              0.0000000000
      4488        37  SAPE      H12Y           -3.1413179537      -23.5936048917        7.7912188784  MEMB      37              0.0000000000
      4489        37  SAPE      C313           -2.7915836272      -24.6983594767        5.8647157448  MEMB      37              0.0000000000
      4490        37  SAPE      H13X           -3.3543634034      -25.6293034648        6.0904216321  MEMB      37              0.0000000000
      4491        37  SAPE      H13Y           -1.8031499833      -24.9260591737        5.4114249125  MEMB      37              0.0000000000
      4492        37  SAPE      C314           -3.6619533911      -23.8234703296        4.9522836648  MEMB      37              0.0000000000
      4493        37  SAPE      H14X           -3.2558616490      -22.7935935469        4.8586653448  MEMB      37              0.0000000000
      4494        37  SAPE      H14Y           -4.6845789690      -23.6822458129        5.3629087626  MEMB      37              0.0000000000
      4495        37  SAPE      C315           -3.9935122701      -24.5499573711        3.6141836841  MEMB      37              0.0000000000
      4496        37  SAPE      H15X           -4.5509861313      -25.4897945921        3.8148080557  MEMB      37              0.0000000000
      4497        37  SAPE      H15Y           -3.0099691391      -24.9394757968        3.2747143889  MEMB      37              0.0000000000
      4498        37  SAPE      C316           -4.6509505787      -23.7241878463        2.4993593825  MEMB      37              0.0000000000
      4499        37  SAPE      H16X           -4.4841113466      -22.6258912188        2.5145338700  MEMB      37              0.0000000000
      4500        37  SAPE      H16Y           -5.7433590393      -23.9016089530        2.5967576491  MEMB      37              0.0000000000
      4501        37  SAPE      C317           -4.1302760176      -24.2962700770        1.1459329323  MEMB      37              0.0000000000
      4502        37  SAPE      H17X           -4.8082016177      -23.9208006223        0.3498420853  MEMB      37              0.0000000000
      4503        37  SAPE      H17Y           -4.2037406316      -25.3909563992        1.3208209423  MEMB      37              0.0000000000
      4504        37  SAPE      C318           -2.7309951562      -23.8379261478        0.8476297579  MEMB      37              0.0000000000
      4505        37  SAPE      H18X           -2.2293739027      -24.4636779056        0.0787798796  MEMB      37              0.0000000000
      4506        37  SAPE      H18Y           -2.0254998723      -23.9703710623        1.6956026630  MEMB      37              0.0000000000
      4507        37  SAPE      H18Z           -2.7176173142      -22.7370922786        0.6982756773  MEMB      37              0.0000000000
      4508        38  SAPE      N             -27.6222752659        1.5062429929       18.6265346492  MEMB      38              0.0000000000
      4509        38  SAPE      HN1           -27.7782761406        1.1773500899       19.6007488121  MEMB      38              0.0000000000
      4510        38  SAPE      HN2           -27.9428408608        2.4618874072       18.3704458708  MEMB      38              0.0000000000
      4511        38  SAPE      HN3           -28.1598601255        0.8072277368       18.0751907045  MEMB      38              0.0000000000
      4512        38  SAPE      C12           -26.1570761773        1.4684330345       18.3131276261  MEMB      38              0.0000000000
      4513        38  SAPE      H12A          -25.8072647982        2.2564723775       19.0138037537  MEMB      38              0.0000000000
      4514        38  SAPE      H12B          -25.8921658215        1.6847931851       17.2560885504  MEMB      38              0.0000000000
      4515        38  SAPE      C11           -25.5043463274        0.1180727822       18.6317820086  MEMB      38              0.0000000000
      4516        38  SAPE      H11A          -24.4342523147        0.3238160569       18.8483219855  MEMB      38              0.0000000000
      4517        38  SAPE      H11B          -25.5973166899       -0.4208281521       17.6646919091  MEMB      38              0.0000000000
      4518        38  SAPE      P             -25.5766344890       -1.1407414973       20.9636428882  MEMB      38              0.0000000000
      4519        38  SAPE      O13           -24.7820557011       -0.0873075110       21.5599319229  MEMB      38              0.0000000000
      4520        38  SAPE      O14           -26.7197468505       -1.5083851117       21.7668880281  MEMB      38              0.0000000000
      4521        38  SAPE      O12           -26.0951626345       -0.6721627613       19.6084712880  MEMB      38              0.0000000000
      4522        38  SAPE      O11           -24.6492377512       -2.4281477734       20.5296215686  MEMB      38              0.0000000000
      4523        38  SAPE      C1            -25.0458651770       -3.3581243527       19.5262375471  MEMB      38              0.0000000000
      4524        38  SAPE      HA            -25.3729985078       -4.2864896955       20.0414487031  MEMB      38              0.0000000000
      4525        38  SAPE      HB            -25.8545724723       -2.9470956438       18.8848569970  MEMB      38              0.0000000000
      4526        38  SAPE      C2            -23.8882989632       -3.5612309191       18.4866581065  MEMB      38              0.0000000000
      4527        38  SAPE      HS            -22.9548819367       -3.3211708216       19.0393105637  MEMB      38              0.0000000000
      4528        38  SAPE      O21           -24.0433810282       -2.7305981221       17.3776731431  MEMB      38              0.0000000000
      4529        38  SAPE      C21           -23.0999272933       -2.4861080694       16.4591686615  MEMB      38              0.0000000000
      4530        38  SAPE      O22           -22.0091199892       -3.0141204927       16.3214194263  MEMB      38              0.0000000000
      4531        38  SAPE      C22           -23.5894401032       -1.2298018681       15.6375001705  MEMB      38              0.0000000000
      4532        38  SAPE      H2R           -24.5785942581       -1.4724028155       15.1936082575  MEMB      38              0.0000000000
      4533        38  SAPE      H2S           -23.6381563421       -0.3759925291       16.3466951900  MEMB      38              0.0000000000
      4534        38  SAPE      C3            -23.8703752168       -4.9945793554       18.0183740942  MEMB      38              0.0000000000
      4535        38  SAPE      HX            -23.4864545264       -5.6377749164       18.8388771582  MEMB      38              0.0000000000
      4536        38  SAPE      HY            -23.2136117377       -4.9901533669       17.1222920203  MEMB      38              0.0000000000
      4537        38  SAPE      O31           -25.1920414605       -5.4285476439       17.7037072158  MEMB      38              0.0000000000
      4538        38  SAPE      C31           -25.4511759381       -5.9084128387       16.4639146570  MEMB      38              0.0000000000
      4539        38  SAPE      O32           -24.6532779488       -6.2659843580       15.6152832000  MEMB      38              0.0000000000
      4540        38  SAPE      C32           -27.0079299464       -5.7409186822       16.1546307551  MEMB      38              0.0000000000
      4541        38  SAPE      H2X           -27.4764021426       -5.0144413661       16.8525455404  MEMB      38              0.0000000000
      4542        38  SAPE      H2Y           -27.4152758315       -6.7716189704       16.2323951276  MEMB      38              0.0000000000
      4543        38  SAPE      C23           -22.5849836712       -0.6822318473       14.5692347100  MEMB      38              0.0000000000
      4544        38  SAPE      H3R           -22.2577265585       -1.4565920632       13.8428807205  MEMB      38              0.0000000000
      4545        38  SAPE      H3S           -21.6751299879       -0.3040605512       15.0825317292  MEMB      38              0.0000000000
      4546        38  SAPE      C24           -23.2153062386        0.5458933274       13.8561802538  MEMB      38              0.0000000000
      4547        38  SAPE      H4R           -23.5769529388        1.1905540802       14.6856043620  MEMB      38              0.0000000000
      4548        38  SAPE      H4S           -23.9649453953        0.2525895404       13.0904549152  MEMB      38              0.0000000000
      4549        38  SAPE      C25           -22.1604474953        1.2623697462       13.1235174211  MEMB      38              0.0000000000
      4550        38  SAPE      H5R           -21.6019307049        1.8776208683       13.8442982392  MEMB      38              0.0000000000
      4551        38  SAPE      C26           -21.8358408272        1.2536683142       11.8345097504  MEMB      38              0.0000000000
      4552        38  SAPE      H6R           -20.9429273028        1.7804558130       11.4668130839  MEMB      38              0.0000000000
      4553        38  SAPE      C27           -22.3875673379        0.3650695035       10.7709311165  MEMB      38              0.0000000000
      4554        38  SAPE      H7R           -22.2132532638       -0.7088162006       10.9961089516  MEMB      38              0.0000000000
      4555        38  SAPE      H7S           -21.8352510026        0.6036965132        9.8369476924  MEMB      38              0.0000000000
      4556        38  SAPE      C28           -23.9293259197        0.3901028899       10.5301083702  MEMB      38              0.0000000000
      4557        38  SAPE      H8R           -24.5721942550       -0.3550036807       11.0215723384  MEMB      38              0.0000000000
      4558        38  SAPE      C29           -24.4451132945        1.1843075642        9.5510361936  MEMB      38              0.0000000000
      4559        38  SAPE      H9R           -25.5279234133        1.1815894090        9.3573493508  MEMB      38              0.0000000000
      4560        38  SAPE      C210          -23.7095827515        2.0544556786        8.6724063157  MEMB      38              0.0000000000
      4561        38  SAPE      H10R          -22.8358637670        2.5323816746        9.1648717405  MEMB      38              0.0000000000
      4562        38  SAPE      H10S          -24.3435389301        2.9352036719        8.4342817790  MEMB      38              0.0000000000
      4563        38  SAPE      C211          -23.2013098266        1.3014099752        7.4235103030  MEMB      38              0.0000000000
      4564        38  SAPE      H11R          -22.3102843643        0.7083641999        7.6772231813  MEMB      38              0.0000000000
      4565        38  SAPE      C212          -23.5999480222        1.3464713399        6.1286436859  MEMB      38              0.0000000000
      4566        38  SAPE      H12R          -23.0674878822        0.7371533447        5.3835141996  MEMB      38              0.0000000000
      4567        38  SAPE      C213          -24.6715128670        2.1500582474        5.5020796423  MEMB      38              0.0000000000
      4568        38  SAPE      H13R          -24.8006184527        1.7404827221        4.4774329480  MEMB      38              0.0000000000
      4569        38  SAPE      H13S          -24.3505337035        3.1892527798        5.2754342274  MEMB      38              0.0000000000
      4570        38  SAPE      C214          -25.9885195478        2.1527686618        6.2540143253  MEMB      38              0.0000000000
      4571        38  SAPE      H14R          -26.2506812342        3.1402546197        6.6616201528  MEMB      38              0.0000000000
      4572        38  SAPE      C215          -26.9312106299        1.1580488735        6.4095338760  MEMB      38              0.0000000000
      4573        38  SAPE      H15R          -27.8769258528        1.3859460155        6.9230363765  MEMB      38              0.0000000000
      4574        38  SAPE      C216          -26.8560099109       -0.2290563080        5.7374779477  MEMB      38              0.0000000000
      4575        38  SAPE      H16R          -26.8656141208       -1.0845109575        6.4462981241  MEMB      38              0.0000000000
      4576        38  SAPE      H16S          -25.8612606533       -0.3942146269        5.2710902024  MEMB      38              0.0000000000
      4577        38  SAPE      C217          -27.9820551909       -0.5719967129        4.7093743764  MEMB      38              0.0000000000
      4578        38  SAPE      H17R          -28.9219306708       -0.7059499467        5.2864462673  MEMB      38              0.0000000000
      4579        38  SAPE      H17S          -27.7037498958       -1.6018036503        4.3989472924  MEMB      38              0.0000000000
      4580        38  SAPE      C218          -27.9605183981        0.2985055449        3.4932769801  MEMB      38              0.0000000000
      4581        38  SAPE      H18R          -27.6983651287        1.3705629953        3.6209069530  MEMB      38              0.0000000000
      4582        38  SAPE      H18S          -28.9351607197        0.2756616309        2.9604817529  MEMB      38              0.0000000000
      4583        38  SAPE      C219          -26.9581132615       -0.2120641036        2.4270528519  MEMB      38              0.0000000000
      4584        38  SAPE      H19R          -27.3046039690       -1.2022685272        2.0613209732  MEMB      38              0.0000000000
      4585        38  SAPE      H19S          -25.9597636175       -0.5032409163        2.8179939712  MEMB      38              0.0000000000
      4586        38  SAPE      C220          -26.8502133523        0.7124257666        1.2416290550  MEMB      38              0.0000000000
      4587        38  SAPE      H20R          -27.8715115452        0.7754364313        0.8088460808  MEMB      38              0.0000000000
      4588        38  SAPE      H20S          -26.1408952989        0.4549906574        0.4262038506  MEMB      38              0.0000000000
      4589        38  SAPE      H20T          -26.6189898593        1.7102452373        1.6719916524  MEMB      38              0.0000000000
      4590        38  SAPE      C33           -27.2853202576       -5.2402723161       14.6970499831  MEMB      38              0.0000000000
      4591        38  SAPE      H3X           -28.3956013767       -5.2691429444       14.6694157255  MEMB      38              0.0000000000
      4592        38  SAPE      H3Y           -26.8374684882       -5.9566989316       13.9756048002  MEMB      38              0.0000000000
      4593        38  SAPE      C34           -26.7282511388       -3.8127878800       14.3115295936  MEMB      38              0.0000000000
      4594        38  SAPE      H4X           -25.6309139777       -3.7794928158       14.4820103243  MEMB      38              0.0000000000
      4595        38  SAPE      H4Y           -27.1526586959       -3.1392541991       15.0864823248  MEMB      38              0.0000000000
      4596        38  SAPE      C35           -27.1761526105       -3.2746932391       12.8895985564  MEMB      38              0.0000000000
      4597        38  SAPE      H5X           -27.3330695249       -2.1749104305       12.8763381528  MEMB      38              0.0000000000
      4598        38  SAPE      H5Y           -28.1638551499       -3.6637515223       12.5618821561  MEMB      38              0.0000000000
      4599        38  SAPE      C36           -26.1082813045       -3.5259771643       11.8355374412  MEMB      38              0.0000000000
      4600        38  SAPE      H6X           -25.7056606985       -4.5527213462       11.9697531689  MEMB      38              0.0000000000
      4601        38  SAPE      H6Y           -25.2690209086       -2.8487185449       12.1025279958  MEMB      38              0.0000000000
      4602        38  SAPE      C37           -26.5548943681       -3.2055485051       10.4434527920  MEMB      38              0.0000000000
      4603        38  SAPE      H7X           -26.8422533303       -2.1389004886       10.3250983291  MEMB      38              0.0000000000
      4604        38  SAPE      H7Y           -27.3779409027       -3.8921246487       10.1509995221  MEMB      38              0.0000000000
      4605        38  SAPE      C38           -25.3247549434       -3.4961632905        9.4706016237  MEMB      38              0.0000000000
      4606        38  SAPE      H8X           -25.1251738920       -4.5886695405        9.5009081656  MEMB      38              0.0000000000
      4607        38  SAPE      H8Y           -24.3955490632       -2.9546040545        9.7491893098  MEMB      38              0.0000000000
      4608        38  SAPE      C39           -25.7676008844       -3.1398001030        8.0079094897  MEMB      38              0.0000000000
      4609        38  SAPE      H9X           -25.8245598251       -2.0314724991        7.9560766628  MEMB      38              0.0000000000
      4610        38  SAPE      H9Y           -26.7388365584       -3.6471984979        7.8246907697  MEMB      38              0.0000000000
      4611        38  SAPE      C310          -24.8287252811       -3.3851450056        6.8224538982  MEMB      38              0.0000000000
      4612        38  SAPE      H10X          -25.5073353501       -3.3395528173        5.9439718466  MEMB      38              0.0000000000
      4613        38  SAPE      H10Y          -24.3555658941       -4.3898478923        6.8542842807  MEMB      38              0.0000000000
      4614        38  SAPE      C311          -23.7742773271       -2.2610039717        6.5609816199  MEMB      38              0.0000000000
      4615        38  SAPE      H11X          -23.2492818417       -2.0504067637        7.5171985971  MEMB      38              0.0000000000
      4616        38  SAPE      H11Y          -24.2712624065       -1.3015153305        6.3027022932  MEMB      38              0.0000000000
      4617        38  SAPE      C312          -22.8340340421       -2.7208691171        5.4962451893  MEMB      38              0.0000000000
      4618        38  SAPE      H12X          -22.7799236053       -3.8304552335        5.5107966002  MEMB      38              0.0000000000
      4619        38  SAPE      H12Y          -21.8126893195       -2.3026481576        5.6237883343  MEMB      38              0.0000000000
      4620        38  SAPE      C313          -23.2556464900       -2.5189780720        4.0667023682  MEMB      38              0.0000000000
      4621        38  SAPE      H13X          -22.3721525252       -2.2500550410        3.4490933957  MEMB      38              0.0000000000
      4622        38  SAPE      H13Y          -24.0882127598       -1.7850174914        4.0171418433  MEMB      38              0.0000000000
      4623        38  SAPE      C314          -23.8130449413       -3.8311361147        3.4074945534  MEMB      38              0.0000000000
      4624        38  SAPE      H14X          -24.7311946929       -4.1014090491        3.9716542366  MEMB      38              0.0000000000
      4625        38  SAPE      H14Y          -23.0166280932       -4.5952932492        3.5344005580  MEMB      38              0.0000000000
      4626        38  SAPE      C315          -24.1040685821       -3.7069132034        1.9249653168  MEMB      38              0.0000000000
      4627        38  SAPE      H15X          -23.1347315655       -3.3666695337        1.5019496265  MEMB      38              0.0000000000
      4628        38  SAPE      H15Y          -24.9753816135       -3.0237860315        1.8329227983  MEMB      38              0.0000000000
      4629        38  SAPE      C316          -24.4783588130       -5.0590758573        1.3891671632  MEMB      38              0.0000000000
      4630        38  SAPE      H16X          -25.5629264097       -5.2772419964        1.4913315544  MEMB      38              0.0000000000
      4631        38  SAPE      H16Y          -24.0253145487       -5.8244251641        2.0549828996  MEMB      38              0.0000000000
      4632        38  SAPE      C317          -24.2164065590       -5.1181324702       -0.1052646956  MEMB      38              0.0000000000
      4633        38  SAPE      H17X          -23.1375537554       -5.3192197708       -0.2783567986  MEMB      38              0.0000000000
      4634        38  SAPE      H17Y          -24.5216481675       -4.1515916985       -0.5601790190  MEMB      38              0.0000000000
      4635        38  SAPE      C318          -25.0199727758       -6.2065387289       -0.8661775236  MEMB      38              0.0000000000
      4636        38  SAPE      H18X          -24.9798204155       -7.2037273180       -0.3779929875  MEMB      38              0.0000000000
      4637        38  SAPE      H18Y          -24.6719227751       -6.2670063885       -1.9195193690  MEMB      38              0.0000000000
      4638        38  SAPE      H18Z          -26.0727313705       -5.8541941078       -0.9094602619  MEMB      38              0.0000000000
      4639        39  CHL1      C3             25.9504208622        3.9984970660       17.2860600000  MEMB      39              0.0000000000
      4640        39  CHL1      H3             25.6841527339        2.9245339332       17.1859500000  MEMB      39              0.0000000000
      4641        39  CHL1      O3             26.0402515378        4.2355992140       18.7139400000  MEMB      39              0.0000000000
      4642        39  CHL1      H3'            26.6355052097        3.5943223111       19.1089600000  MEMB      39              0.0000000000
      4643        39  CHL1      C4             27.3597155015        4.2069906871       16.6448200000  MEMB      39              0.0000000000
      4644        39  CHL1      H4A            27.5875144397        5.2833306906       16.7994600000  MEMB      39              0.0000000000
      4645        39  CHL1      H4B            28.1741043351        3.7022568009       17.2072500000  MEMB      39              0.0000000000
      4646        39  CHL1      C5             27.3989825188        3.8665541354       15.1543500000  MEMB      39              0.0000000000
      4647        39  CHL1      C6             28.3684475920        3.0702491182       14.6547500000  MEMB      39              0.0000000000
      4648        39  CHL1      H6             29.0920108567        2.6351418767       15.3598300000  MEMB      39              0.0000000000
      4649        39  CHL1      C7             28.5175849372        2.8978998080       13.1827400000  MEMB      39              0.0000000000
      4650        39  CHL1      H7A            29.5209294628        3.2799764599       12.8969900000  MEMB      39              0.0000000000
      4651        39  CHL1      H7B            28.3731502766        1.8355311331       12.8915100000  MEMB      39              0.0000000000
      4652        39  CHL1      C8             27.6468450264        3.7583322672       12.2906200000  MEMB      39              0.0000000000
      4653        39  CHL1      H8             28.0268214255        4.7967333815       12.1826100000  MEMB      39              0.0000000000
      4654        39  CHL1      C14            27.6301188203        3.2916185638       10.8010700000  MEMB      39              0.0000000000
      4655        39  CHL1      H14            27.0568785107        2.3401000017       10.7831700000  MEMB      39              0.0000000000
      4656        39  CHL1      C15            28.9367339023        3.1859298758       10.0366400000  MEMB      39              0.0000000000
      4657        39  CHL1      H15A           29.6290960255        4.0200793191       10.2798500000  MEMB      39              0.0000000000
      4658        39  CHL1      H15B           29.5260491264        2.2562056894       10.1871000000  MEMB      39              0.0000000000
      4659        39  CHL1      C16            28.5594700912        3.2796393656        8.5313500000  MEMB      39              0.0000000000
      4660        39  CHL1      H16A           29.1799397609        3.9893729705        7.9434700000  MEMB      39              0.0000000000
      4661        39  CHL1      H16B           28.6464942819        2.2786061503        8.0573500000  MEMB      39              0.0000000000
      4662        39  CHL1      C17            27.0467531279        3.6886633458        8.5530200000  MEMB      39              0.0000000000
      4663        39  CHL1      H17            26.4815345762        2.7348993665        8.4809100000  MEMB      39              0.0000000000
      4664        39  CHL1      C13            26.7733779801        4.2401464811        9.9218000000  MEMB      39              0.0000000000
      4665        39  CHL1      C18            27.4690749879        5.6082064321        9.8163400000  MEMB      39              0.0000000000
      4666        39  CHL1      H18A           28.4225340542        5.5773982617        9.2468800000  MEMB      39              0.0000000000
      4667        39  CHL1      H18B           26.8865641860        6.2198543735        9.0946200000  MEMB      39              0.0000000000
      4668        39  CHL1      H18C           27.4298002311        6.1834816658       10.7659900000  MEMB      39              0.0000000000
      4669        39  CHL1      C12            25.3319455437        4.3359248984       10.4252600000  MEMB      39              0.0000000000
      4670        39  CHL1      H12A           24.7036105717        5.0311749853        9.8284900000  MEMB      39              0.0000000000
      4671        39  CHL1      H12B           24.8621078022        3.3308624244       10.3666400000  MEMB      39              0.0000000000
      4672        39  CHL1      C11            25.2935811496        4.7538805966       11.8925300000  MEMB      39              0.0000000000
      4673        39  CHL1      H11A           25.4795844975        5.8422826740       12.0153700000  MEMB      39              0.0000000000
      4674        39  CHL1      H11B           24.2606792611        4.4772313847       12.1940000000  MEMB      39              0.0000000000
      4675        39  CHL1      C9             26.2231534677        3.9407662191       12.8048800000  MEMB      39              0.0000000000
      4676        39  CHL1      H9             25.8589934244        2.9207588263       13.0524500000  MEMB      39              0.0000000000
      4677        39  CHL1      C10            26.3227473139        4.5400359375       14.2900500000  MEMB      39              0.0000000000
      4678        39  CHL1      C19            26.5987618271        6.0456864379       14.2582600000  MEMB      39              0.0000000000
      4679        39  CHL1      H19A           25.6281484026        6.4916084632       13.9526800000  MEMB      39              0.0000000000
      4680        39  CHL1      H19B           26.7935746917        6.4081209365       15.2902600000  MEMB      39              0.0000000000
      4681        39  CHL1      H19C           27.4259373934        6.3740115820       13.5932000000  MEMB      39              0.0000000000
      4682        39  CHL1      C1             25.0164238069        4.3708228142       15.0497900000  MEMB      39              0.0000000000
      4683        39  CHL1      H1A            24.1620779345        4.9345317557       14.6177700000  MEMB      39              0.0000000000
      4684        39  CHL1      H1B            24.6563239275        3.3202020245       15.0203700000  MEMB      39              0.0000000000
      4685        39  CHL1      C2             24.9192700751        4.8065280244       16.4938500000  MEMB      39              0.0000000000
      4686        39  CHL1      H2A            23.9116793807        4.5320542095       16.8729900000  MEMB      39              0.0000000000
      4687        39  CHL1      H2B            24.9139417361        5.9164659247       16.5421000000  MEMB      39              0.0000000000
      4688        39  CHL1      C20            26.5940674740        4.3247920032        7.2336700000  MEMB      39              0.0000000000
      4689        39  CHL1      H20            27.1589446785        5.2684273507        7.0762600000  MEMB      39              0.0000000000
      4690        39  CHL1      C21            25.0840071112        4.5791594261        7.1779900000  MEMB      39              0.0000000000
      4691        39  CHL1      H21A           24.7194726239        4.6453802854        6.1305900000  MEMB      39              0.0000000000
      4692        39  CHL1      H21B           24.7903967719        5.4235818827        7.8375800000  MEMB      39              0.0000000000
      4693        39  CHL1      H21C           24.5013005235        3.7135963420        7.5595200000  MEMB      39              0.0000000000
      4694        39  CHL1      C22            26.9473994502        3.4522385695        5.9580100000  MEMB      39              0.0000000000
      4695        39  CHL1      H22A           28.0548315891        3.3671767074        5.9842000000  MEMB      39              0.0000000000
      4696        39  CHL1      H22B           26.3317844365        2.5277453538        5.9833400000  MEMB      39              0.0000000000
      4697        39  CHL1      C23            26.7895724920        4.1154164114        4.5942200000  MEMB      39              0.0000000000
      4698        39  CHL1      H23A           25.7615477801        4.5309058050        4.5244700000  MEMB      39              0.0000000000
      4699        39  CHL1      H23B           27.3703739124        5.0484737275        4.7567100000  MEMB      39              0.0000000000
      4700        39  CHL1      C24            27.1610715132        3.3886245930        3.3196000000  MEMB      39              0.0000000000
      4701        39  CHL1      H24A           28.1463464423        2.8908892751        3.4453000000  MEMB      39              0.0000000000
      4702        39  CHL1      H24B           26.5088658703        2.5304567922        3.0503500000  MEMB      39              0.0000000000
      4703        39  CHL1      C25            27.2972162362        4.2643582523        2.0927000000  MEMB      39              0.0000000000
      4704        39  CHL1      H25            26.3842925703        4.8974789342        2.0993200000  MEMB      39              0.0000000000
      4705        39  CHL1      C26            28.5111471443        5.1458860979        2.2482900000  MEMB      39              0.0000000000
      4706        39  CHL1      H26A           28.7559588762        5.8599090737        1.4330800000  MEMB      39              0.0000000000
      4707        39  CHL1      H26B           28.5552323425        5.8403470165        3.1143700000  MEMB      39              0.0000000000
      4708        39  CHL1      H26C           29.4376305852        4.5359449544        2.3110000000  MEMB      39              0.0000000000
      4709        39  CHL1      C27            27.3595717775        3.4867293839        0.7834900000  MEMB      39              0.0000000000
      4710        39  CHL1      H27A           27.9236892230        2.5422102268        0.9383100000  MEMB      39              0.0000000000
      4711        39  CHL1      H27B           26.3438755090        3.1751388791        0.4585500000  MEMB      39              0.0000000000
      4712        39  CHL1      H27C           27.8655016389        4.0641816805       -0.0195700000  MEMB      39              0.0000000000
      4713        40  SAPE      N             -19.1648243107      -21.9976612085       22.3326129797  MEMB      40              0.0000000000
      4714        40  SAPE      HN1           -20.0260683155      -22.5583336751       22.4923157364  MEMB      40              0.0000000000
      4715        40  SAPE      HN2           -18.4264900338      -22.6576134890       22.0149251603  MEMB      40              0.0000000000
      4716        40  SAPE      HN3           -18.9136990505      -21.6265670045       23.2711358752  MEMB      40              0.0000000000
      4717        40  SAPE      C12           -19.3309280175      -20.8577341119       21.3239470260  MEMB      40              0.0000000000
      4718        40  SAPE      H12A          -19.7065443403      -19.9565406036       21.8541202983  MEMB      40              0.0000000000
      4719        40  SAPE      H12B          -20.1916791291      -21.1259493811       20.6747253372  MEMB      40              0.0000000000
      4720        40  SAPE      C11           -18.0031053294      -20.6436433358       20.6816974165  MEMB      40              0.0000000000
      4721        40  SAPE      H11A          -17.6736244148      -21.4476149041       19.9893152567  MEMB      40              0.0000000000
      4722        40  SAPE      H11B          -17.3109013274      -20.6808318194       21.5499091540  MEMB      40              0.0000000000
      4723        40  SAPE      P             -16.6921829104      -19.0845914703       19.1648159676  MEMB      40              0.0000000000
      4724        40  SAPE      O13           -16.5574199631      -17.6808319247       18.6784461627  MEMB      40              0.0000000000
      4725        40  SAPE      O14           -15.5527664521      -19.7444141636       19.8774033358  MEMB      40              0.0000000000
      4726        40  SAPE      O12           -17.9006767872      -19.2361534854       20.0558324533  MEMB      40              0.0000000000
      4727        40  SAPE      O11           -16.9800234295      -20.0453679017       17.8852446512  MEMB      40              0.0000000000
      4728        40  SAPE      C1            -18.1209475766      -19.7219202452       17.1000626549  MEMB      40              0.0000000000
      4729        40  SAPE      HA            -19.1020874878      -19.7921126314       17.6165494774  MEMB      40              0.0000000000
      4730        40  SAPE      HB            -18.0864397042      -18.6543175918       16.7945224990  MEMB      40              0.0000000000
      4731        40  SAPE      C2            -18.2067905939      -20.6202111613       15.8403828105  MEMB      40              0.0000000000
      4732        40  SAPE      HS            -18.4064869549      -21.6631851571       16.1669526034  MEMB      40              0.0000000000
      4733        40  SAPE      O21           -16.9462931865      -20.4960833596       15.1607122297  MEMB      40              0.0000000000
      4734        40  SAPE      C21           -15.9535913791      -21.2908253001       15.5233255113  MEMB      40              0.0000000000
      4735        40  SAPE      O22           -16.0926347536      -22.1977238734       16.3475315792  MEMB      40              0.0000000000
      4736        40  SAPE      C22           -14.6929691674      -20.9814508236       14.6916143528  MEMB      40              0.0000000000
      4737        40  SAPE      H2R           -14.4568954623      -19.9134921235       14.8866903187  MEMB      40              0.0000000000
      4738        40  SAPE      H2S           -13.8498559476      -21.6035204488       15.0610881534  MEMB      40              0.0000000000
      4739        40  SAPE      C3            -19.3819318055      -20.1946195953       14.9081088644  MEMB      40              0.0000000000
      4740        40  SAPE      HX            -19.3333118644      -19.0894448132       14.8054166849  MEMB      40              0.0000000000
      4741        40  SAPE      HY            -20.3258056003      -20.4011117515       15.4565468120  MEMB      40              0.0000000000
      4742        40  SAPE      O31           -19.1635778470      -20.7744004759       13.5653956771  MEMB      40              0.0000000000
      4743        40  SAPE      C31           -20.0086820953      -21.7298395560       13.2517994940  MEMB      40              0.0000000000
      4744        40  SAPE      O32           -20.7026527497      -22.3081417450       14.0744532014  MEMB      40              0.0000000000
      4745        40  SAPE      C32           -19.9798451210      -21.9397671714       11.7429441550  MEMB      40              0.0000000000
      4746        40  SAPE      H2X           -19.1769158938      -21.3652730759       11.2334517913  MEMB      40              0.0000000000
      4747        40  SAPE      H2Y           -20.9847874548      -21.8231224843       11.2838074781  MEMB      40              0.0000000000
      4748        40  SAPE      C23           -14.8488283754      -21.2190495744       13.1461665959  MEMB      40              0.0000000000
      4749        40  SAPE      H3R           -15.4529818421      -20.3027071264       12.9740150114  MEMB      40              0.0000000000
      4750        40  SAPE      H3S           -15.3210398931      -22.1746587994       12.8328801626  MEMB      40              0.0000000000
      4751        40  SAPE      C24           -13.4660592790      -21.0646237056       12.4631149873  MEMB      40              0.0000000000
      4752        40  SAPE      H4R           -13.8007424263      -21.1940707866       11.4116633043  MEMB      40              0.0000000000
      4753        40  SAPE      H4S           -12.7419857064      -21.8956845091       12.6023136248  MEMB      40              0.0000000000
      4754        40  SAPE      C25           -12.9159504456      -19.6439469640       12.6420226980  MEMB      40              0.0000000000
      4755        40  SAPE      H5R           -12.1044873731      -19.5324251855       13.3762507397  MEMB      40              0.0000000000
      4756        40  SAPE      C26           -13.4832702892      -18.4612912901       12.2628891493  MEMB      40              0.0000000000
      4757        40  SAPE      H6R           -12.8699757936      -17.5862813335       12.5240928656  MEMB      40              0.0000000000
      4758        40  SAPE      C27           -14.8140465587      -18.2773137892       11.5475578062  MEMB      40              0.0000000000
      4759        40  SAPE      H7R           -15.1181024042      -19.2730012356       11.1596431916  MEMB      40              0.0000000000
      4760        40  SAPE      H7S           -14.6407550229      -17.7370090965       10.5923813180  MEMB      40              0.0000000000
      4761        40  SAPE      C28           -15.7720626797      -17.4708373651       12.3521624969  MEMB      40              0.0000000000
      4762        40  SAPE      H8R           -15.3713040273      -16.6364018525       12.9463926437  MEMB      40              0.0000000000
      4763        40  SAPE      C29           -17.0808798665      -17.6878489253       12.1600871059  MEMB      40              0.0000000000
      4764        40  SAPE      H9R           -17.8493473327      -17.0235256873       12.5821441986  MEMB      40              0.0000000000
      4765        40  SAPE      C210          -17.6160484557      -18.6217401062       11.2048489022  MEMB      40              0.0000000000
      4766        40  SAPE      H10R          -18.7002981808      -18.7286762383       11.4223075020  MEMB      40              0.0000000000
      4767        40  SAPE      H10S          -17.2101112966      -19.6463396486       11.3453190372  MEMB      40              0.0000000000
      4768        40  SAPE      C211          -17.4479310112      -18.1094069112        9.7699965006  MEMB      40              0.0000000000
      4769        40  SAPE      H11R          -17.4962674318      -17.0214895204        9.6147566211  MEMB      40              0.0000000000
      4770        40  SAPE      C212          -17.3599533152      -18.8715130081        8.6649935177  MEMB      40              0.0000000000
      4771        40  SAPE      H12R          -17.0108663226      -18.5354742760        7.6774632234  MEMB      40              0.0000000000
      4772        40  SAPE      C213          -17.4541437437      -20.3847951644        8.5465611360  MEMB      40              0.0000000000
      4773        40  SAPE      H13R          -17.9424996884      -20.6966524962        7.5986293298  MEMB      40              0.0000000000
      4774        40  SAPE      H13S          -18.0414001864      -20.8410419172        9.3719633865  MEMB      40              0.0000000000
      4775        40  SAPE      C214          -16.1003736038      -20.9912358677        8.6724559066  MEMB      40              0.0000000000
      4776        40  SAPE      H14R          -15.9653206968      -21.6410327892        9.5496814846  MEMB      40              0.0000000000
      4777        40  SAPE      C215          -15.0677135060      -20.8335087366        7.7090607597  MEMB      40              0.0000000000
      4778        40  SAPE      H15R          -14.1139432147      -21.3159083557        7.9690851326  MEMB      40              0.0000000000
      4779        40  SAPE      C216          -15.0341822511      -20.1153283151        6.3896655062  MEMB      40              0.0000000000
      4780        40  SAPE      H16R          -14.9143890654      -19.0160778235        6.4974576127  MEMB      40              0.0000000000
      4781        40  SAPE      H16S          -16.0070855615      -20.3237552998        5.8953597758  MEMB      40              0.0000000000
      4782        40  SAPE      C217          -13.8910544456      -20.6366523211        5.5609196849  MEMB      40              0.0000000000
      4783        40  SAPE      H17R          -12.9573200575      -20.4490379944        6.1329887372  MEMB      40              0.0000000000
      4784        40  SAPE      H17S          -13.7591071126      -19.9550826751        4.6935249234  MEMB      40              0.0000000000
      4785        40  SAPE      C218          -14.0879824968      -22.1566594128        5.0987121354  MEMB      40              0.0000000000
      4786        40  SAPE      H18R          -14.2047851388      -22.7660053809        6.0203281112  MEMB      40              0.0000000000
      4787        40  SAPE      H18S          -13.1844869915      -22.4143219986        4.5057306831  MEMB      40              0.0000000000
      4788        40  SAPE      C219          -15.3038591978      -22.5165933552        4.2803113325  MEMB      40              0.0000000000
      4789        40  SAPE      H19R          -16.2352651087      -22.4123172549        4.8769106008  MEMB      40              0.0000000000
      4790        40  SAPE      H19S          -15.2408119142      -23.5625770779        3.9111710139  MEMB      40              0.0000000000
      4791        40  SAPE      C220          -15.4672599903      -21.6124351028        3.0204795631  MEMB      40              0.0000000000
      4792        40  SAPE      H20R          -14.4758389460      -21.5124004783        2.5291560747  MEMB      40              0.0000000000
      4793        40  SAPE      H20S          -15.9014566480      -20.6379576231        3.3306217255  MEMB      40              0.0000000000
      4794        40  SAPE      H20T          -16.1965640343      -22.0616367753        2.3129110665  MEMB      40              0.0000000000
      4795        40  SAPE      C33           -19.7963490030      -23.4375462119       11.3149646296  MEMB      40              0.0000000000
      4796        40  SAPE      H3X           -20.2377770025      -23.4583666329       10.2956363787  MEMB      40              0.0000000000
      4797        40  SAPE      H3Y           -20.2590644018      -24.1592432113       12.0216247957  MEMB      40              0.0000000000
      4798        40  SAPE      C34           -18.2805847888      -23.7150649332       11.4122271093  MEMB      40              0.0000000000
      4799        40  SAPE      H4X           -18.0048864698      -23.6506066005       12.4865437768  MEMB      40              0.0000000000
      4800        40  SAPE      H4Y           -17.8366175488      -22.9023329704       10.7984838672  MEMB      40              0.0000000000
      4801        40  SAPE      C35           -17.8293882204      -25.0090725081       10.7977255005  MEMB      40              0.0000000000
      4802        40  SAPE      H5X           -18.2373032746      -25.8439277004       11.4067763658  MEMB      40              0.0000000000
      4803        40  SAPE      H5Y           -16.7191687507      -25.0225062449       10.8371431375  MEMB      40              0.0000000000
      4804        40  SAPE      C36           -18.2038549373      -25.2077919570        9.3041122833  MEMB      40              0.0000000000
      4805        40  SAPE      H6X           -19.3097221449      -25.1105843129        9.2601906716  MEMB      40              0.0000000000
      4806        40  SAPE      H6Y           -17.8672566191      -26.2303114232        9.0293809263  MEMB      40              0.0000000000
      4807        40  SAPE      C37           -17.5918214392      -24.2641507262        8.2502210131  MEMB      40              0.0000000000
      4808        40  SAPE      H7X           -16.4887554019      -24.3786214347        8.3170276874  MEMB      40              0.0000000000
      4809        40  SAPE      H7Y           -17.8604985315      -23.2134394042        8.4913424796  MEMB      40              0.0000000000
      4810        40  SAPE      C38           -18.2120444357      -24.5390236264        6.8351153280  MEMB      40              0.0000000000
      4811        40  SAPE      H8X           -17.8592948107      -25.5774274372        6.6573346767  MEMB      40              0.0000000000
      4812        40  SAPE      H8Y           -17.7794688016      -23.8210822109        6.1058974223  MEMB      40              0.0000000000
      4813        40  SAPE      C39           -19.7194698542      -24.3510456237        6.7354399013  MEMB      40              0.0000000000
      4814        40  SAPE      H9X           -20.1780577192      -25.0996474814        7.4163317360  MEMB      40              0.0000000000
      4815        40  SAPE      H9Y           -19.9191110576      -24.7008827031        5.7000279165  MEMB      40              0.0000000000
      4816        40  SAPE      C310          -20.1805363916      -22.9188034078        6.9867849317  MEMB      40              0.0000000000
      4817        40  SAPE      H10X          -19.6693878570      -22.4838059912        7.8721234706  MEMB      40              0.0000000000
      4818        40  SAPE      H10Y          -21.2844013457      -22.8733334469        7.1039841190  MEMB      40              0.0000000000
      4819        40  SAPE      C311          -19.7041817676      -21.9579874170        5.8638426454  MEMB      40              0.0000000000
      4820        40  SAPE      H11X          -18.5950583815      -21.8936028763        5.8592513959  MEMB      40              0.0000000000
      4821        40  SAPE      H11Y          -20.2372562229      -21.0078926204        6.0817244883  MEMB      40              0.0000000000
      4822        40  SAPE      C312          -20.0808499371      -22.3738461187        4.4284979429  MEMB      40              0.0000000000
      4823        40  SAPE      H12X          -21.1596099296      -22.5966217611        4.2836927090  MEMB      40              0.0000000000
      4824        40  SAPE      H12Y          -19.6015762252      -23.3657005185        4.2841277984  MEMB      40              0.0000000000
      4825        40  SAPE      C313          -19.6532579031      -21.3158196235        3.3201775369  MEMB      40              0.0000000000
      4826        40  SAPE      H13X          -20.1652094555      -21.7203783881        2.4209787575  MEMB      40              0.0000000000
      4827        40  SAPE      H13Y          -18.5434361010      -21.3655957008        3.3083839943  MEMB      40              0.0000000000
      4828        40  SAPE      C314          -19.9522983164      -19.8061772732        3.5804354913  MEMB      40              0.0000000000
      4829        40  SAPE      H14X          -19.4039440605      -19.3308644573        2.7391822900  MEMB      40              0.0000000000
      4830        40  SAPE      H14Y          -19.5102166750      -19.4356008359        4.5299383417  MEMB      40              0.0000000000
      4831        40  SAPE      C315          -21.4474762887      -19.4948912070        3.6089617966  MEMB      40              0.0000000000
      4832        40  SAPE      H15X          -21.4801783390      -18.4717974089        4.0408532386  MEMB      40              0.0000000000
      4833        40  SAPE      H15Y          -21.9900900933      -20.2078201583        4.2659424657  MEMB      40              0.0000000000
      4834        40  SAPE      C316          -22.1852524195      -19.4137361837        2.2149950992  MEMB      40              0.0000000000
      4835        40  SAPE      H16X          -23.2454871672      -19.1242662769        2.3775694120  MEMB      40              0.0000000000
      4836        40  SAPE      H16Y          -22.2146220444      -20.4675997042        1.8645250900  MEMB      40              0.0000000000
      4837        40  SAPE      C317          -21.6201789744      -18.5470948467        1.1127225767  MEMB      40              0.0000000000
      4838        40  SAPE      H17X          -22.2546854526      -18.4744897852        0.2036290217  MEMB      40              0.0000000000
      4839        40  SAPE      H17Y          -20.6624810270      -19.0237354153        0.8128074685  MEMB      40              0.0000000000
      4840        40  SAPE      C318          -21.2830998436      -17.1424976272        1.5930405286  MEMB      40              0.0000000000
      4841        40  SAPE      H18X          -22.2207831258      -16.6394743722        1.9124763593  MEMB      40              0.0000000000
      4842        40  SAPE      H18Y          -20.8845422436      -16.5437917272        0.7462676572  MEMB      40              0.0000000000
      4843        40  SAPE      H18Z          -20.6157600348      -17.2196435939        2.4779292805  MEMB      40              0.0000000000
      4844        41  OSM       N             -22.8725428092      -12.3437571167       20.9417593605  MEMB      41              0.0000000000
      4845        41  OSM       C15           -21.3221199535      -12.4674708502       21.0563034427  MEMB      41              0.0000000000
      4846        41  OSM       H15A          -20.9214106929      -12.2242128226       20.0833401682  MEMB      41              0.0000000000
      4847        41  OSM       H15B          -20.9177065689      -13.4315015505       21.3274023624  MEMB      41              0.0000000000
      4848        41  OSM       H15C          -21.0146795961      -11.6806640392       21.7292188607  MEMB      41              0.0000000000
      4849        41  OSM       C14           -23.5344051173      -12.8733745606       22.2497063512  MEMB      41              0.0000000000
      4850        41  OSM       H14A          -24.5459678432      -12.4969395195       22.2876195513  MEMB      41              0.0000000000
      4851        41  OSM       H14B          -22.9824791185      -12.4794883295       23.0903200755  MEMB      41              0.0000000000
      4852        41  OSM       H14C          -23.6202137005      -13.9496379261       22.2233605177  MEMB      41              0.0000000000
      4853        41  OSM       C13           -23.1575388962      -10.8643976540       20.7154649879  MEMB      41              0.0000000000
      4854        41  OSM       H13A          -24.2029637843      -10.7084034389       20.4937607233  MEMB      41              0.0000000000
      4855        41  OSM       H13B          -22.5276851652      -10.4869433905       19.9234972845  MEMB      41              0.0000000000
      4856        41  OSM       H13C          -22.9650165841      -10.4043842756       21.6734435030  MEMB      41              0.0000000000
      4857        41  OSM       C12           -23.4035983049      -13.0400883054       19.7256617448  MEMB      41              0.0000000000
      4858        41  OSM       H12A          -22.9224847616      -12.7075198997       18.8177365919  MEMB      41              0.0000000000
      4859        41  OSM       H12B          -24.4692949491      -12.8705252843       19.6816256175  MEMB      41              0.0000000000
      4860        41  OSM       C11           -23.2951570911      -14.5436242677       19.6827976309  MEMB      41              0.0000000000
      4861        41  OSM       H11A          -22.2681888776      -14.8900122292       19.9270774764  MEMB      41              0.0000000000
      4862        41  OSM       H11B          -23.4907978637      -14.7403432632       18.6069969046  MEMB      41              0.0000000000
      4863        41  OSM       P             -24.2450554023      -16.4116049827       21.3758124869  MEMB      41              0.0000000000
      4864        41  OSM       O13           -23.1098590517      -16.4613464078       22.3261152733  MEMB      41              0.0000000000
      4865        41  OSM       O14           -25.5326534475      -16.7571741204       22.0221005411  MEMB      41              0.0000000000
      4866        41  OSM       O11           -23.9046739883      -17.6020180739       20.3992484172  MEMB      41              0.0000000000
      4867        41  OSM       O12           -24.3299142630      -15.1008923536       20.5050297646  MEMB      41              0.0000000000
      4868        41  OSM       C1S           -24.8088350172      -18.0990418167       19.5464799949  MEMB      41              0.0000000000
      4869        41  OSM       H1S           -25.8203437584      -17.6599030140       19.6818622147  MEMB      41              0.0000000000
      4870        41  OSM       H1T           -24.7937247765      -19.2099103196       19.5384953899  MEMB      41              0.0000000000
      4871        41  OSM       NF            -25.5120825084      -17.8901198551       17.2210426635  MEMB      41              0.0000000000
      4872        41  OSM       HNF           -25.5787731137      -18.7431853066       16.7093387130  MEMB      41              0.0000000000
      4873        41  OSM       C2S           -24.3261191906      -17.7592743017       18.0517498551  MEMB      41              0.0000000000
      4874        41  OSM       H2S           -24.1119427522      -16.6704569743       18.1058437505  MEMB      41              0.0000000000
      4875        41  OSM       C3S           -23.2194025973      -18.6449519190       17.5710780951  MEMB      41              0.0000000000
      4876        41  OSM       H3S           -23.4156511243      -19.7373361424       17.6211195591  MEMB      41              0.0000000000
      4877        41  OSM       O3            -22.0328395533      -18.5174114389       18.2685656713  MEMB      41              0.0000000000
      4878        41  OSM       HO3           -22.2383155009      -17.9189097443       18.9904906091  MEMB      41              0.0000000000
      4879        41  OSM       C4S           -22.9736474163      -18.2565410720       16.1165708617  MEMB      41              0.0000000000
      4880        41  OSM       H4S           -22.4688530588      -17.2843162387       16.0167631984  MEMB      41              0.0000000000
      4881        41  OSM       C5S           -23.2149346505      -19.0948160628       15.1199069780  MEMB      41              0.0000000000
      4882        41  OSM       H5S           -23.6651035364      -20.0589988988       15.3986535612  MEMB      41              0.0000000000
      4883        41  OSM       C6S           -22.9903583074      -18.7987066615       13.6624925302  MEMB      41              0.0000000000
      4884        41  OSM       H6S           -22.7463158076      -19.7296184569       13.1073641662  MEMB      41              0.0000000000
      4885        41  OSM       H6T           -22.0951965774      -18.1693420340       13.4703818163  MEMB      41              0.0000000000
      4886        41  OSM       C7S           -24.0993715384      -17.9311853020       12.9411924972  MEMB      41              0.0000000000
      4887        41  OSM       H7S           -24.4482578993      -17.2254030533       13.7250747385  MEMB      41              0.0000000000
      4888        41  OSM       H7T           -24.9428895326      -18.5580795540       12.5809124485  MEMB      41              0.0000000000
      4889        41  OSM       C8S           -23.4250651572      -17.1057217285       11.7289595284  MEMB      41              0.0000000000
      4890        41  OSM       H8S           -22.9275489141      -17.9111214333       11.1474695220  MEMB      41              0.0000000000
      4891        41  OSM       H8T           -22.6060215342      -16.4600955796       12.1119148789  MEMB      41              0.0000000000
      4892        41  OSM       C9S           -24.3559622288      -16.2265589132       10.9175091893  MEMB      41              0.0000000000
      4893        41  OSM       H9S           -23.6247146914      -15.5691879816       10.4003423218  MEMB      41              0.0000000000
      4894        41  OSM       H9T           -24.9395262926      -15.5558074945       11.5837423357  MEMB      41              0.0000000000
      4895        41  OSM       C10S          -25.1514462606      -17.0976701727        9.9121144402  MEMB      41              0.0000000000
      4896        41  OSM       H10S          -25.7993974772      -16.3448350837        9.4144001947  MEMB      41              0.0000000000
      4897        41  OSM       H10T          -25.8807643948      -17.8220800827       10.3335952517  MEMB      41              0.0000000000
      4898        41  OSM       C11S          -24.3480054328      -17.8141809510        8.7403556196  MEMB      41              0.0000000000
      4899        41  OSM       H11S          -25.0131069402      -18.3679692660        8.0437355035  MEMB      41              0.0000000000
      4900        41  OSM       H11T          -23.7016176914      -18.5801641022        9.2197023907  MEMB      41              0.0000000000
      4901        41  OSM       C12S          -23.5169845360      -16.7662798478        7.9412043963  MEMB      41              0.0000000000
      4902        41  OSM       H12S          -22.6519474136      -16.3561662849        8.5049762814  MEMB      41              0.0000000000
      4903        41  OSM       H12T          -24.1989247081      -15.9184802723        7.7164503514  MEMB      41              0.0000000000
      4904        41  OSM       C13S          -23.0249788997      -17.3558141965        6.6168781270  MEMB      41              0.0000000000
      4905        41  OSM       H13S          -23.9545276992      -17.7697135433        6.1708434480  MEMB      41              0.0000000000
      4906        41  OSM       H13T          -22.3595416666      -18.1905122325        6.9247622260  MEMB      41              0.0000000000
      4907        41  OSM       C14S          -22.3177502731      -16.3403389744        5.6562194649  MEMB      41              0.0000000000
      4908        41  OSM       H14S          -21.2251669473      -16.4268948310        5.8381260944  MEMB      41              0.0000000000
      4909        41  OSM       H14T          -22.6481814366      -15.3533347318        6.0447529992  MEMB      41              0.0000000000
      4910        41  OSM       C15S          -22.8099787438      -16.3758566583        4.2225533580  MEMB      41              0.0000000000
      4911        41  OSM       H15S          -22.6066145423      -15.3871259098        3.7584679600  MEMB      41              0.0000000000
      4912        41  OSM       H15T          -23.9048911601      -16.5593619475        4.2651324596  MEMB      41              0.0000000000
      4913        41  OSM       C16S          -22.0462646125      -17.3795088487        3.3514521213  MEMB      41              0.0000000000
      4914        41  OSM       H16S          -22.1247948310      -18.3245164252        3.9303429255  MEMB      41              0.0000000000
      4915        41  OSM       H16T          -20.9786785579      -17.1402627123        3.1582095963  MEMB      41              0.0000000000
      4916        41  OSM       C17S          -22.6758432357      -17.6190005876        2.0025691272  MEMB      41              0.0000000000
      4917        41  OSM       H17S          -23.7486073368      -17.8771105116        2.1324825223  MEMB      41              0.0000000000
      4918        41  OSM       H17T          -22.0847011550      -18.3813675750        1.4515080025  MEMB      41              0.0000000000
      4919        41  OSM       C18S          -22.6858672321      -16.4038351024        1.0453413659  MEMB      41              0.0000000000
      4920        41  OSM       H18S          -23.4641857606      -15.7101058455        1.4291129301  MEMB      41              0.0000000000
      4921        41  OSM       H18T          -22.7993188589      -16.6684281045       -0.0277109924  MEMB      41              0.0000000000
      4922        41  OSM       H18U          -21.7019455104      -15.9219416177        1.2297237068  MEMB      41              0.0000000000
      4923        41  OSM       C1F           -26.5410491565      -16.8844054520       17.3235104890  MEMB      41              0.0000000000
      4924        41  OSM       OF            -26.4350294820      -15.8229371917       17.9096982515  MEMB      41              0.0000000000
      4925        41  OSM       C2F           -27.9305453127      -17.2582786591       16.6620118653  MEMB      41              0.0000000000
      4926        41  OSM       H2F           -28.7287534913      -17.0664127036       17.4105921669  MEMB      41              0.0000000000
      4927        41  OSM       H2G           -28.0112722692      -18.3559050732       16.5102866845  MEMB      41              0.0000000000
      4928        41  OSM       C3F           -28.2342436811      -16.4126115374       15.3757290530  MEMB      41              0.0000000000
      4929        41  OSM       H3F           -27.9856984175      -15.3508950493       15.5885775929  MEMB      41              0.0000000000
      4930        41  OSM       H3G           -29.3248616193      -16.6065661220       15.2905531368  MEMB      41              0.0000000000
      4931        41  OSM       C4F           -27.5266881718      -16.8935960304       14.1605305160  MEMB      41              0.0000000000
      4932        41  OSM       H4F           -27.4637463082      -18.0015203927       14.2140375844  MEMB      41              0.0000000000
      4933        41  OSM       H4G           -26.5378783494      -16.3902633395       14.1036782139  MEMB      41              0.0000000000
      4934        41  OSM       C5F           -28.2473750406      -16.4253863619       12.8597299592  MEMB      41              0.0000000000
      4935        41  OSM       H5F           -29.3022157014      -16.7641297366       12.9427057459  MEMB      41              0.0000000000
      4936        41  OSM       H5G           -27.6995106601      -16.7916781319       11.9653045573  MEMB      41              0.0000000000
      4937        41  OSM       C6F           -28.1729181122      -14.8795473960       12.7276356727  MEMB      41              0.0000000000
      4938        41  OSM       H6F           -27.1162397765      -14.5366635189       12.7141181521  MEMB      41              0.0000000000
      4939        41  OSM       H6G           -28.7689058845      -14.5045091683       13.5869767379  MEMB      41              0.0000000000
      4940        41  OSM       C7F           -28.6726114646      -14.3624206487       11.3829875084  MEMB      41              0.0000000000
      4941        41  OSM       H7F           -29.7824651261      -14.3774904361       11.3348335103  MEMB      41              0.0000000000
      4942        41  OSM       H7G           -28.2107033552      -15.1052724553       10.6980544188  MEMB      41              0.0000000000
      4943        41  OSM       C8F           -28.2942747542      -12.8752185988       10.9880256888  MEMB      41              0.0000000000
      4944        41  OSM       H8F           -28.6302486484      -12.2309476801       11.8284766558  MEMB      41              0.0000000000
      4945        41  OSM       H8G           -28.9428177587      -12.6343060941       10.1187302245  MEMB      41              0.0000000000
      4946        41  OSM       C9F           -26.8132404810      -12.7107605551       10.7679431135  MEMB      41              0.0000000000
      4947        41  OSM       H9F           -26.2834270498      -12.5053853593       11.7098128332  MEMB      41              0.0000000000
      4948        41  OSM       C10F          -26.2623330335      -12.8466668594        9.5300130970  MEMB      41              0.0000000000
      4949        41  OSM       H10F          -25.1637529907      -12.7949640159        9.5088345280  MEMB      41              0.0000000000
      4950        41  OSM       C11F          -26.9752860609      -13.1516918474        8.2354652054  MEMB      41              0.0000000000
      4951        41  OSM       H11F          -28.0645856914      -13.0211377936        8.4106881855  MEMB      41              0.0000000000
      4952        41  OSM       H11G          -26.7923053209      -14.2042002174        7.9303997840  MEMB      41              0.0000000000
      4953        41  OSM       C12F          -26.7740243384      -12.2409812801        6.9734976434  MEMB      41              0.0000000000
      4954        41  OSM       H12F          -27.0312072869      -11.1658306270        7.0840804753  MEMB      41              0.0000000000
      4955        41  OSM       H12G          -27.4511607805      -12.5486014138        6.1481630714  MEMB      41              0.0000000000
      4956        41  OSM       C13F          -25.3906080880      -12.3615718154        6.2523792555  MEMB      41              0.0000000000
      4957        41  OSM       H13F          -24.6276796315      -12.1144263436        7.0212625907  MEMB      41              0.0000000000
      4958        41  OSM       H13G          -25.3058029288      -11.5339458023        5.5160614762  MEMB      41              0.0000000000
      4959        41  OSM       C14F          -25.1957556334      -13.7531330668        5.6626341937  MEMB      41              0.0000000000
      4960        41  OSM       H14F          -25.2652940732      -14.4711129363        6.5076135895  MEMB      41              0.0000000000
      4961        41  OSM       H14G          -24.1553888486      -13.7767878118        5.2735348328  MEMB      41              0.0000000000
      4962        41  OSM       C15F          -26.2114499142      -14.2275244529        4.5638072451  MEMB      41              0.0000000000
      4963        41  OSM       H15F          -27.2743899789      -14.4609470531        4.7873992407  MEMB      41              0.0000000000
      4964        41  OSM       H15G          -25.7238372811      -15.2057392662        4.3646820821  MEMB      41              0.0000000000
      4965        41  OSM       C16F          -26.2385824778      -13.4088062456        3.3091958555  MEMB      41              0.0000000000
      4966        41  OSM       H16F          -25.2200469286      -13.6853084296        2.9621329336  MEMB      41              0.0000000000
      4967        41  OSM       H16G          -26.3674729422      -12.3454524253        3.6041318982  MEMB      41              0.0000000000
      4968        41  OSM       C17F          -27.3102939586      -13.8262230947        2.2121203221  MEMB      41              0.0000000000
      4969        41  OSM       H17F          -27.4937660652      -12.9967148548        1.4961761134  MEMB      41              0.0000000000
      4970        41  OSM       H17G          -28.2611250171      -14.0846480474        2.7254011246  MEMB      41              0.0000000000
      4971        41  OSM       C18F          -26.8277109565      -15.0522235095        1.4291378168  MEMB      41              0.0000000000
      4972        41  OSM       H18F          -25.7218050320      -14.9699590818        1.3618674115  MEMB      41              0.0000000000
      4973        41  OSM       H18G          -27.2165651875      -15.0943601057        0.3892641248  MEMB      41              0.0000000000
      4974        41  OSM       H18H          -27.1541743606      -16.0040212440        1.9001189002  MEMB      41              0.0000000000
      4975        42  SOPE      N              16.8467002418      -21.6785868317       20.7798669266  MEMB      42              0.0000000000
      4976        42  SOPE      HN1            16.1412142043      -22.2517233813       21.2852422643  MEMB      42              0.0000000000
      4977        42  SOPE      HN2            16.3062560916      -20.8249439768       20.5332620147  MEMB      42              0.0000000000
      4978        42  SOPE      HN3            17.2637978309      -22.1189130634       19.9350341688  MEMB      42              0.0000000000
      4979        42  SOPE      C12            18.0864443444      -21.5489903811       21.6297291181  MEMB      42              0.0000000000
      4980        42  SOPE      H12A           18.4225139551      -22.5801790551       21.8706192358  MEMB      42              0.0000000000
      4981        42  SOPE      H12B           17.6947378144      -21.1938547684       22.6068502101  MEMB      42              0.0000000000
      4982        42  SOPE      C11            19.1468364593      -20.7006470229       20.9572368327  MEMB      42              0.0000000000
      4983        42  SOPE      H11A           19.5948071918      -21.0371439130       19.9978552168  MEMB      42              0.0000000000
      4984        42  SOPE      H11B           20.0502707789      -20.7590113692       21.6012252442  MEMB      42              0.0000000000
      4985        42  SOPE      P              19.5088044778      -18.2503455681       20.9610499469  MEMB      42              0.0000000000
      4986        42  SOPE      O13            20.8702887601      -18.2929475429       20.3970905643  MEMB      42              0.0000000000
      4987        42  SOPE      O14            19.3742538852      -18.0322770578       22.4264849108  MEMB      42              0.0000000000
      4988        42  SOPE      O12            18.6729453416      -19.4549754891       20.5146084191  MEMB      42              0.0000000000
      4989        42  SOPE      O11            18.7384808695      -17.0111572727       20.3339332601  MEMB      42              0.0000000000
      4990        42  SOPE      C1             17.3440637650      -16.8268736132       20.6056771540  MEMB      42              0.0000000000
      4991        42  SOPE      HA             17.1340676694      -15.8994227540       21.1801834147  MEMB      42              0.0000000000
      4992        42  SOPE      HB             17.0079007932      -17.5737609612       21.3563266178  MEMB      42              0.0000000000
      4993        42  SOPE      C2             16.5487871910      -17.0188467756       19.2497061062  MEMB      42              0.0000000000
      4994        42  SOPE      HS             15.5478481545      -17.4557850909       19.4534882649  MEMB      42              0.0000000000
      4995        42  SOPE      O21            17.3540388944      -17.6885468255       18.2346319612  MEMB      42              0.0000000000
      4996        42  SOPE      C21            16.8130279759      -18.7931257300       17.7654894582  MEMB      42              0.0000000000
      4997        42  SOPE      O22            15.6980185262      -19.1770417611       17.9938541839  MEMB      42              0.0000000000
      4998        42  SOPE      C22            17.8584139694      -19.4597044815       16.8876740326  MEMB      42              0.0000000000
      4999        42  SOPE      H2R            18.4793559571      -20.1592982900       17.4871071524  MEMB      42              0.0000000000
      5000        42  SOPE      H2S            18.5050855169      -18.7251605095       16.3617631402  MEMB      42              0.0000000000
      5001        42  SOPE      C3             16.3325147766      -15.5804444288       18.6589678115  MEMB      42              0.0000000000
      5002        42  SOPE      HX             17.3020019327      -15.0778565034       18.4544659311  MEMB      42              0.0000000000
      5003        42  SOPE      HY             15.7369638390      -14.9866721428       19.3849672228  MEMB      42              0.0000000000
      5004        42  SOPE      O31            15.6019930204      -15.5808676543       17.4661697763  MEMB      42              0.0000000000
      5005        42  SOPE      C31            16.0157969054      -15.1752705840       16.2562346427  MEMB      42              0.0000000000
      5006        42  SOPE      O32            17.1784690245      -14.9534851277       15.9302369622  MEMB      42              0.0000000000
      5007        42  SOPE      C32            14.8726831175      -15.0724529886       15.2176505984  MEMB      42              0.0000000000
      5008        42  SOPE      H2X            14.9303793062      -14.0183360418       14.8714871455  MEMB      42              0.0000000000
      5009        42  SOPE      H2Y            14.0197189108      -15.3005751389       15.8919897905  MEMB      42              0.0000000000
      5010        42  SOPE      C23            17.1115614327      -20.4160047979       15.8905466304  MEMB      42              0.0000000000
      5011        42  SOPE      H3R            16.4984429419      -19.7872905427       15.2100140289  MEMB      42              0.0000000000
      5012        42  SOPE      H3S            16.3354959296      -21.0337761956       16.3909482515  MEMB      42              0.0000000000
      5013        42  SOPE      C24            18.1314882299      -21.3276319431       15.1025289211  MEMB      42              0.0000000000
      5014        42  SOPE      H4R            18.5074887101      -22.0609881987       15.8476012254  MEMB      42              0.0000000000
      5015        42  SOPE      H4S            17.5290530818      -21.9206008762       14.3815704097  MEMB      42              0.0000000000
      5016        42  SOPE      C25            19.1887659386      -20.5893239299       14.3313962289  MEMB      42              0.0000000000
      5017        42  SOPE      H5R            19.9420196162      -20.1564116855       15.0238677119  MEMB      42              0.0000000000
      5018        42  SOPE      H5S            19.6468174206      -21.3838397299       13.7042959754  MEMB      42              0.0000000000
      5019        42  SOPE      C26            18.6783130890      -19.5789106526       13.2971282323  MEMB      42              0.0000000000
      5020        42  SOPE      H6R            17.8542752255      -19.9575083207       12.6552983728  MEMB      42              0.0000000000
      5021        42  SOPE      H6S            18.3212286166      -18.7469285446       13.9410360790  MEMB      42              0.0000000000
      5022        42  SOPE      C27            19.7836866439      -18.8334374577       12.5387798745  MEMB      42              0.0000000000
      5023        42  SOPE      H7R            20.6783857117      -18.7543351116       13.1926740218  MEMB      42              0.0000000000
      5024        42  SOPE      H7S            20.1031495967      -19.4780120184       11.6921463447  MEMB      42              0.0000000000
      5025        42  SOPE      C28            19.2636234559      -17.4041578941       12.0822936488  MEMB      42              0.0000000000
      5026        42  SOPE      H8R            18.3224112787      -17.5620503466       11.5135139091  MEMB      42              0.0000000000
      5027        42  SOPE      H8S            19.0224106157      -16.8574938579       13.0189349520  MEMB      42              0.0000000000
      5028        42  SOPE      C29            20.2173805985      -16.6227529750       11.1750111449  MEMB      42              0.0000000000
      5029        42  SOPE      H91            21.0066733594      -17.1794813175       10.6486363587  MEMB      42              0.0000000000
      5030        42  SOPE      C210           20.2163911028      -15.2913588889       10.9975651211  MEMB      42              0.0000000000
      5031        42  SOPE      H101           20.9322105741      -14.7352527642       10.3743889903  MEMB      42              0.0000000000
      5032        42  SOPE      C211           19.2534366176      -14.2738893341       11.5841811522  MEMB      42              0.0000000000
      5033        42  SOPE      H11R           19.7557958409      -13.4031115922       12.0571530345  MEMB      42              0.0000000000
      5034        42  SOPE      H11S           18.6724028682      -14.7061825010       12.4267032415  MEMB      42              0.0000000000
      5035        42  SOPE      C212           18.3408090540      -13.8361944168       10.4833123332  MEMB      42              0.0000000000
      5036        42  SOPE      H12R           18.9056868341      -13.3705457202        9.6476054447  MEMB      42              0.0000000000
      5037        42  SOPE      H12S           17.6722120778      -13.0065865418       10.7980341619  MEMB      42              0.0000000000
      5038        42  SOPE      C213           17.5299165077      -14.9479581744        9.6366613234  MEMB      42              0.0000000000
      5039        42  SOPE      H13R           16.8085449038      -15.4898768994       10.2849424887  MEMB      42              0.0000000000
      5040        42  SOPE      H13S           18.2726506226      -15.5959818437        9.1240871774  MEMB      42              0.0000000000
      5041        42  SOPE      C214           16.5688915409      -14.4451911706        8.5264241819  MEMB      42              0.0000000000
      5042        42  SOPE      H14R           15.8483376415      -13.7473857263        9.0041171285  MEMB      42              0.0000000000
      5043        42  SOPE      H14S           16.0695219209      -15.3456715572        8.1091881345  MEMB      42              0.0000000000
      5044        42  SOPE      C215           17.1566918199      -13.4587297053        7.4930656404  MEMB      42              0.0000000000
      5045        42  SOPE      H15R           18.0563210299      -13.9450561979        7.0589290820  MEMB      42              0.0000000000
      5046        42  SOPE      H15S           17.6758424954      -12.6939458924        8.1094338206  MEMB      42              0.0000000000
      5047        42  SOPE      C216           16.1504815316      -12.9153461909        6.3908599180  MEMB      42              0.0000000000
      5048        42  SOPE      H16R           15.5250095977      -12.0631096165        6.7326178813  MEMB      42              0.0000000000
      5049        42  SOPE      H16S           15.5465134362      -13.8174935495        6.1549069383  MEMB      42              0.0000000000
      5050        42  SOPE      C217           16.7528910440      -12.4581171490        5.0161020702  MEMB      42              0.0000000000
      5051        42  SOPE      H17R           17.6783563626      -13.0452530994        4.8341500015  MEMB      42              0.0000000000
      5052        42  SOPE      H17S           17.1204268591      -11.4106661403        5.0617556941  MEMB      42              0.0000000000
      5053        42  SOPE      C218           15.7488227070      -12.6027194206        3.8810884990  MEMB      42              0.0000000000
      5054        42  SOPE      H18R           15.3531380258      -13.6393479257        3.9372588208  MEMB      42              0.0000000000
      5055        42  SOPE      H18S           16.1194096956      -12.3196146750        2.8727039568  MEMB      42              0.0000000000
      5056        42  SOPE      H18T           14.8596596007      -11.9855782358        4.1317811613  MEMB      42              0.0000000000
      5057        42  SOPE      C33            15.0461606423      -16.0829434666       14.1236379506  MEMB      42              0.0000000000
      5058        42  SOPE      H3X            15.0550857068      -17.0972255486       14.5769290806  MEMB      42              0.0000000000
      5059        42  SOPE      H3Y            16.0476657226      -15.9110358380       13.6744653045  MEMB      42              0.0000000000
      5060        42  SOPE      C34            13.9902870139      -16.0228772210       13.0316091582  MEMB      42              0.0000000000
      5061        42  SOPE      H4X            14.0695716731      -14.9523199681       12.7453541540  MEMB      42              0.0000000000
      5062        42  SOPE      H4Y            13.0504361446      -16.2097933894       13.5938049904  MEMB      42              0.0000000000
      5063        42  SOPE      C35            14.1990758423      -17.0020747008       11.8449279074  MEMB      42              0.0000000000
      5064        42  SOPE      H5X            14.2335113617      -18.0509118554       12.2097239797  MEMB      42              0.0000000000
      5065        42  SOPE      H5Y            15.1797950376      -16.8530105916       11.3446365951  MEMB      42              0.0000000000
      5066        42  SOPE      C36            13.1645713644      -16.8315324728       10.6858999807  MEMB      42              0.0000000000
      5067        42  SOPE      H6X            12.1602401214      -16.7793146247       11.1580370372  MEMB      42              0.0000000000
      5068        42  SOPE      H6Y            13.2004455701      -17.7998375766       10.1423746091  MEMB      42              0.0000000000
      5069        42  SOPE      C37            13.3351618309      -15.6824599195        9.7630124712  MEMB      42              0.0000000000
      5070        42  SOPE      H7X            14.2629013569      -15.9067958397        9.1944230542  MEMB      42              0.0000000000
      5071        42  SOPE      H7Y            13.5220397268      -14.7443320478       10.3280904997  MEMB      42              0.0000000000
      5072        42  SOPE      C38            12.1580250181      -15.5507073945        8.7542199604  MEMB      42              0.0000000000
      5073        42  SOPE      H8X            11.7595619409      -14.5150336144        8.8083326389  MEMB      42              0.0000000000
      5074        42  SOPE      H8Y            11.3305695334      -16.2411752844        9.0242076018  MEMB      42              0.0000000000
      5075        42  SOPE      C39            12.5015100638      -15.7876322208        7.3136225858  MEMB      42              0.0000000000
      5076        42  SOPE      H9X            13.4285856688      -15.3319739478        6.9046877225  MEMB      42              0.0000000000
      5077        42  SOPE      H9Y            11.6684527320      -15.3376510437        6.7323699378  MEMB      42              0.0000000000
      5078        42  SOPE      C310           12.6187306187      -17.2552824716        7.0746147724  MEMB      42              0.0000000000
      5079        42  SOPE      H10X           11.7241695855      -17.8017847565        7.4426043939  MEMB      42              0.0000000000
      5080        42  SOPE      H10Y           13.4721503290      -17.6818265159        7.6438738657  MEMB      42              0.0000000000
      5081        42  SOPE      C311           12.8873910914      -17.6938201879        5.6338802662  MEMB      42              0.0000000000
      5082        42  SOPE      H11X           12.0818493031      -17.3159315316        4.9685800672  MEMB      42              0.0000000000
      5083        42  SOPE      H11Y           12.7130313783      -18.7847290483        5.7515121844  MEMB      42              0.0000000000
      5084        42  SOPE      C312           14.2717443961      -17.3774972974        4.9923261407  MEMB      42              0.0000000000
      5085        42  SOPE      H12X           14.5811605313      -16.3170069383        5.1104081003  MEMB      42              0.0000000000
      5086        42  SOPE      H12Y           14.1216024366      -17.6976903069        3.9391136999  MEMB      42              0.0000000000
      5087        42  SOPE      C313           15.4290805164      -18.2944365803        5.4773354292  MEMB      42              0.0000000000
      5088        42  SOPE      H13X           15.1717631391      -19.3738233276        5.4222601907  MEMB      42              0.0000000000
      5089        42  SOPE      H13Y           15.7340511847      -18.0288041768        6.5121078090  MEMB      42              0.0000000000
      5090        42  SOPE      C314           16.8070715504      -18.0988503687        4.8875115688  MEMB      42              0.0000000000
      5091        42  SOPE      H14X           16.7360146708      -18.3692202665        3.8122577636  MEMB      42              0.0000000000
      5092        42  SOPE      H14Y           17.6240864819      -18.7495302039        5.2662250738  MEMB      42              0.0000000000
      5093        42  SOPE      C315           17.3773595220      -16.6448030145        4.9968291560  MEMB      42              0.0000000000
      5094        42  SOPE      H15X           17.6111329088      -16.4157708868        6.0585329160  MEMB      42              0.0000000000
      5095        42  SOPE      H15Y           16.6441862095      -15.8513291483        4.7376439882  MEMB      42              0.0000000000
      5096        42  SOPE      C316           18.5755650013      -16.4660004536        4.0218958408  MEMB      42              0.0000000000
      5097        42  SOPE      H16X           19.3308326849      -17.2749565740        4.1192705572  MEMB      42              0.0000000000
      5098        42  SOPE      H16Y           19.1471032995      -15.5620382462        4.3227571861  MEMB      42              0.0000000000
      5099        42  SOPE      C317           18.1531341577      -16.4179714532        2.5434093874  MEMB      42              0.0000000000
      5100        42  SOPE      H17X           17.2764760104      -15.7359135366        2.5191661124  MEMB      42              0.0000000000
      5101        42  SOPE      H17Y           17.7527730920      -17.4130993047        2.2540094156  MEMB      42              0.0000000000
      5102        42  SOPE      C318           19.2538025595      -15.9156784075        1.5906281188  MEMB      42              0.0000000000
      5103        42  SOPE      H18X           18.8274032749      -15.4488786995        0.6770629969  MEMB      42              0.0000000000
      5104        42  SOPE      H18Y           19.8903518040      -16.7812131820        1.3078285695  MEMB      42              0.0000000000
      5105        42  SOPE      H18Z           19.9138925457      -15.1442908062        2.0418075213  MEMB      42              0.0000000000
      5106        43  CHL1      C3             -4.5241314324       26.8186642754       17.3462050000  MEMB      43              0.0000000000
      5107        43  CHL1      H3             -3.8083006199       26.0111791322       17.0818450000  MEMB      43              0.0000000000
      5108        43  CHL1      O3             -4.1450350210       27.2532193246       18.6537950000  MEMB      43              0.0000000000
      5109        43  CHL1      H3'            -4.3955629532       26.5067085627       19.2029350000  MEMB      43              0.0000000000
      5110        43  CHL1      C4             -4.1802851979       28.1128210694       16.4848250000  MEMB      43              0.0000000000
      5111        43  CHL1      H4A            -4.6405128258       29.0082139173       16.9547050000  MEMB      43              0.0000000000
      5112        43  CHL1      H4B            -3.1080030303       28.3748577261       16.6108250000  MEMB      43              0.0000000000
      5113        43  CHL1      C5             -4.6546728468       27.8087622398       15.0148050000  MEMB      43              0.0000000000
      5114        43  CHL1      C6             -3.8243092931       28.0801600634       14.0155550000  MEMB      43              0.0000000000
      5115        43  CHL1      H6             -2.9123542446       28.6755485537       14.1700050000  MEMB      43              0.0000000000
      5116        43  CHL1      C7             -4.1426157856       27.7918440143       12.5949550000  MEMB      43              0.0000000000
      5117        43  CHL1      H7A            -3.7062665281       28.5721571068       11.9353850000  MEMB      43              0.0000000000
      5118        43  CHL1      H7B            -3.6231923075       26.8809168874       12.2279050000  MEMB      43              0.0000000000
      5119        43  CHL1      C8             -5.6868860613       27.5810251953       12.3125050000  MEMB      43              0.0000000000
      5120        43  CHL1      H8             -6.2225396945       28.5539519598       12.2841150000  MEMB      43              0.0000000000
      5121        43  CHL1      C14            -5.8692515908       26.8237667749       10.9461450000  MEMB      43              0.0000000000
      5122        43  CHL1      H14            -5.3720076342       25.8475917444       11.1309450000  MEMB      43              0.0000000000
      5123        43  CHL1      C15            -5.2052855471       27.4294770848        9.5844950000  MEMB      43              0.0000000000
      5124        43  CHL1      H15A           -5.3737362403       28.5276206182        9.5824250000  MEMB      43              0.0000000000
      5125        43  CHL1      H15B           -4.1246397850       27.1730589794        9.6124250000  MEMB      43              0.0000000000
      5126        43  CHL1      C16            -5.8185044025       26.6836369016        8.4737450000  MEMB      43              0.0000000000
      5127        43  CHL1      H16A           -6.1139542859       27.3942408172        7.6724650000  MEMB      43              0.0000000000
      5128        43  CHL1      H16B           -5.1001754372       25.9380560979        8.0707050000  MEMB      43              0.0000000000
      5129        43  CHL1      C17            -7.0046249962       25.8011260389        9.0499050000  MEMB      43              0.0000000000
      5130        43  CHL1      H17            -6.5597256752       24.8100530075        9.2826350000  MEMB      43              0.0000000000
      5131        43  CHL1      C13            -7.2963645464       26.5218525247       10.4681150000  MEMB      43              0.0000000000
      5132        43  CHL1      C18            -8.1105345980       27.7473836644       10.2435850000  MEMB      43              0.0000000000
      5133        43  CHL1      H18A           -7.5733547123       28.3559008695        9.4849850000  MEMB      43              0.0000000000
      5134        43  CHL1      H18B           -9.1229759502       27.4389559869        9.9057150000  MEMB      43              0.0000000000
      5135        43  CHL1      H18C           -8.3218941676       28.2006228263       11.2356650000  MEMB      43              0.0000000000
      5136        43  CHL1      C12            -7.9970265573       25.6596015356       11.5736850000  MEMB      43              0.0000000000
      5137        43  CHL1      H12A           -9.1042826588       25.6676348805       11.4829850000  MEMB      43              0.0000000000
      5138        43  CHL1      H12B           -7.4994700843       24.6701220046       11.6613350000  MEMB      43              0.0000000000
      5139        43  CHL1      C11            -7.7057783865       26.2023862760       12.9948250000  MEMB      43              0.0000000000
      5140        43  CHL1      H11A           -8.2321465334       27.1757374734       13.0940750000  MEMB      43              0.0000000000
      5141        43  CHL1      H11B           -8.0410136946       25.4737402547       13.7636050000  MEMB      43              0.0000000000
      5142        43  CHL1      C9             -6.2431793322       26.6314233738       13.3311750000  MEMB      43              0.0000000000
      5143        43  CHL1      H9             -5.6928517378       25.6688825501       13.2606250000  MEMB      43              0.0000000000
      5144        43  CHL1      C10            -6.0359018360       27.1364135711       14.8018850000  MEMB      43              0.0000000000
      5145        43  CHL1      C19            -7.1642765409       28.2120699351       15.0240050000  MEMB      43              0.0000000000
      5146        43  CHL1      H19A           -7.1805127155       29.0276749502       14.2697850000  MEMB      43              0.0000000000
      5147        43  CHL1      H19B           -8.1746396590       27.7518231631       15.0648950000  MEMB      43              0.0000000000
      5148        43  CHL1      H19C           -6.9516185555       28.6759246302       16.0108950000  MEMB      43              0.0000000000
      5149        43  CHL1      C1             -6.1767651278       26.0059487557       15.7768650000  MEMB      43              0.0000000000
      5150        43  CHL1      H1A            -7.1196168913       25.4241031014       15.6943550000  MEMB      43              0.0000000000
      5151        43  CHL1      H1B            -5.3931891183       25.3155278188       15.3978350000  MEMB      43              0.0000000000
      5152        43  CHL1      C2             -5.9033358956       26.4343528914       17.2095350000  MEMB      43              0.0000000000
      5153        43  CHL1      H2A            -6.0425838279       25.5191706510       17.8238350000  MEMB      43              0.0000000000
      5154        43  CHL1      H2B            -6.4905906727       27.2615706677       17.6624750000  MEMB      43              0.0000000000
      5155        43  CHL1      C20            -8.1488694723       25.6215255845        8.0274450000  MEMB      43              0.0000000000
      5156        43  CHL1      H20            -8.5059713453       26.6483993172        7.7986950000  MEMB      43              0.0000000000
      5157        43  CHL1      C21            -9.2560460350       24.7930432372        8.7525950000  MEMB      43              0.0000000000
      5158        43  CHL1      H21A          -10.1753753825       24.6157711663        8.1544950000  MEMB      43              0.0000000000
      5159        43  CHL1      H21B           -9.5890274604       25.2734458968        9.6973950000  MEMB      43              0.0000000000
      5160        43  CHL1      H21C           -8.8267205804       23.7874183712        8.9493650000  MEMB      43              0.0000000000
      5161        43  CHL1      C22            -7.6287340536       24.9862398914        6.7844050000  MEMB      43              0.0000000000
      5162        43  CHL1      H22A           -6.9255447102       25.6514007930        6.2390550000  MEMB      43              0.0000000000
      5163        43  CHL1      H22B           -7.0454763291       24.1359762485        7.1981350000  MEMB      43              0.0000000000
      5164        43  CHL1      C23            -8.6103141230       24.5646423251        5.7135750000  MEMB      43              0.0000000000
      5165        43  CHL1      H23A           -9.3812053297       23.8453718726        6.0638750000  MEMB      43              0.0000000000
      5166        43  CHL1      H23B           -9.1552541293       25.4914984127        5.4337750000  MEMB      43              0.0000000000
      5167        43  CHL1      C24            -7.8639590216       23.8400945191        4.5900550000  MEMB      43              0.0000000000
      5168        43  CHL1      H24A           -7.2514619918       24.5800461398        4.0318150000  MEMB      43              0.0000000000
      5169        43  CHL1      H24B           -7.1567926945       23.1525900928        5.1014950000  MEMB      43              0.0000000000
      5170        43  CHL1      C25            -8.6614883179       23.0011288521        3.5601350000  MEMB      43              0.0000000000
      5171        43  CHL1      H25            -9.3361037531       22.2547550268        4.0314650000  MEMB      43              0.0000000000
      5172        43  CHL1      C26            -9.5180026318       23.9138936177        2.5635450000  MEMB      43              0.0000000000
      5173        43  CHL1      H26A          -10.0124802148       23.3639438630        1.7344650000  MEMB      43              0.0000000000
      5174        43  CHL1      H26B          -10.3898410160       24.3105396514        3.1264850000  MEMB      43              0.0000000000
      5175        43  CHL1      H26C           -8.8996054627       24.7508305097        2.1743850000  MEMB      43              0.0000000000
      5176        43  CHL1      C27            -7.6507242872       22.2298115670        2.6858350000  MEMB      43              0.0000000000
      5177        43  CHL1      H27A           -6.9790340035       22.7862916523        1.9977450000  MEMB      43              0.0000000000
      5178        43  CHL1      H27B           -6.9989151092       21.5568075558        3.2829550000  MEMB      43              0.0000000000
      5179        43  CHL1      H27C           -8.2763027552       21.6117456899        2.0068950000  MEMB      43              0.0000000000
      5180        44  CHL1      C3            -26.0430016554       11.4701446073       17.2939500000  MEMB      44              0.0000000000
      5181        44  CHL1      H3            -26.6063074385       12.3968716047       17.0527600000  MEMB      44              0.0000000000
      5182        44  CHL1      O3            -25.7751533446       11.4083861927       18.7060500000  MEMB      44              0.0000000000
      5183        44  CHL1      H3'           -25.5543262306       12.3169890570       18.9234500000  MEMB      44              0.0000000000
      5184        44  CHL1      C4            -26.8871255734       10.2150600621       16.9516800000  MEMB      44              0.0000000000
      5185        44  CHL1      H4A           -26.3384440761        9.3133183796       17.2982900000  MEMB      44              0.0000000000
      5186        44  CHL1      H4B           -27.9163006983       10.2548289540       17.3682600000  MEMB      44              0.0000000000
      5187        44  CHL1      C5            -27.0610285199        9.9233094593       15.4435200000  MEMB      44              0.0000000000
      5188        44  CHL1      C6            -28.2547031607        9.6901495788       14.8808600000  MEMB      44              0.0000000000
      5189        44  CHL1      H6            -29.0475074596        9.6980145993       15.6433600000  MEMB      44              0.0000000000
      5190        44  CHL1      C7            -28.4217378358        9.4581560120       13.3996900000  MEMB      44              0.0000000000
      5191        44  CHL1      H7A           -29.1582413302        8.6378698215       13.2617400000  MEMB      44              0.0000000000
      5192        44  CHL1      H7B           -28.8836530728       10.3598077933       12.9436400000  MEMB      44              0.0000000000
      5193        44  CHL1      C8            -27.1309157267        9.1948741196       12.7209400000  MEMB      44              0.0000000000
      5194        44  CHL1      H8            -26.8223701855        8.1572181144       12.9707200000  MEMB      44              0.0000000000
      5195        44  CHL1      C14           -27.3160958453        9.2969243806       11.2373100000  MEMB      44              0.0000000000
      5196        44  CHL1      H14           -27.4786713182       10.3821452977       11.0636000000  MEMB      44              0.0000000000
      5197        44  CHL1      C15           -28.5054911449        8.4400354450       10.5900300000  MEMB      44              0.0000000000
      5198        44  CHL1      H15A          -28.6044897490        7.4318943259       11.0462800000  MEMB      44              0.0000000000
      5199        44  CHL1      H15B          -29.4013895469        9.0888379881       10.6936300000  MEMB      44              0.0000000000
      5200        44  CHL1      C16           -27.9886719119        8.2773330651        9.1522900000  MEMB      44              0.0000000000
      5201        44  CHL1      H16A          -27.9191706094        7.1864382682        8.9537200000  MEMB      44              0.0000000000
      5202        44  CHL1      H16B          -28.7479615612        8.5536931127        8.3897800000  MEMB      44              0.0000000000
      5203        44  CHL1      C17           -26.6736300895        9.0105138849        9.0720800000  MEMB      44              0.0000000000
      5204        44  CHL1      H17           -26.9269268033       10.0764202983        8.8877000000  MEMB      44              0.0000000000
      5205        44  CHL1      C13           -26.0052254874        8.9909953861       10.3964500000  MEMB      44              0.0000000000
      5206        44  CHL1      C18           -25.4285889703        7.5705742785       10.7104600000  MEMB      44              0.0000000000
      5207        44  CHL1      H18A          -26.1970590046        6.7830227918       10.5570500000  MEMB      44              0.0000000000
      5208        44  CHL1      H18B          -24.4957536245        7.3865586931       10.1357600000  MEMB      44              0.0000000000
      5209        44  CHL1      H18C          -25.2268844201        7.4242301877       11.7931500000  MEMB      44              0.0000000000
      5210        44  CHL1      C12           -25.0255914958       10.0536854446       10.6898700000  MEMB      44              0.0000000000
      5211        44  CHL1      H12A          -24.0366189894       10.0719529719       10.1839700000  MEMB      44              0.0000000000
      5212        44  CHL1      H12B          -25.4432676423       11.0196216429       10.3337400000  MEMB      44              0.0000000000
      5213        44  CHL1      C11           -24.7879364720       10.2095504559       12.2164400000  MEMB      44              0.0000000000
      5214        44  CHL1      H11A          -24.2205107984        9.3437246983       12.6198000000  MEMB      44              0.0000000000
      5215        44  CHL1      H11B          -24.1394935878       11.0885341440       12.4195400000  MEMB      44              0.0000000000
      5216        44  CHL1      C9            -26.0954787707       10.1841695621       13.1317700000  MEMB      44              0.0000000000
      5217        44  CHL1      H9            -26.6974490918       11.1177466690       13.1510900000  MEMB      44              0.0000000000
      5218        44  CHL1      C10           -25.8185659665       10.0514553256       14.6442700000  MEMB      44              0.0000000000
      5219        44  CHL1      C19           -24.7935227978        8.9016273548       14.9635700000  MEMB      44              0.0000000000
      5220        44  CHL1      H19A          -24.7483023828        8.7466826870       16.0627800000  MEMB      44              0.0000000000
      5221        44  CHL1      H19B          -25.0586506019        8.0137538647       14.3506200000  MEMB      44              0.0000000000
      5222        44  CHL1      H19C          -23.7658745761        9.2033258625       14.6682000000  MEMB      44              0.0000000000
      5223        44  CHL1      C1            -25.0900868211       11.3192957393       15.0161500000  MEMB      44              0.0000000000
      5224        44  CHL1      H1A           -24.1456207493       11.5134710623       14.4642500000  MEMB      44              0.0000000000
      5225        44  CHL1      H1B           -25.7755058673       12.1419888524       14.7200200000  MEMB      44              0.0000000000
      5226        44  CHL1      C2            -24.7919175459       11.4273091469       16.5261500000  MEMB      44              0.0000000000
      5227        44  CHL1      H2A           -24.3308718490       12.4111777753       16.7579700000  MEMB      44              0.0000000000
      5228        44  CHL1      H2B           -24.1634993958       10.6338594475       16.9842500000  MEMB      44              0.0000000000
      5229        44  CHL1      C20           -25.7485605881        8.5286904216        7.8759600000  MEMB      44              0.0000000000
      5230        44  CHL1      H20           -25.3363064106        7.5283211643        8.1282400000  MEMB      44              0.0000000000
      5231        44  CHL1      C21           -24.6674881846        9.5201872142        7.6108500000  MEMB      44              0.0000000000
      5232        44  CHL1      H21A          -24.4721990399        9.4276851253        6.5210700000  MEMB      44              0.0000000000
      5233        44  CHL1      H21B          -23.7794437217        9.4715536254        8.2766900000  MEMB      44              0.0000000000
      5234        44  CHL1      H21C          -25.0634356342       10.5491011247        7.7483500000  MEMB      44              0.0000000000
      5235        44  CHL1      C22           -26.5475302837        8.0823452133        6.5938400000  MEMB      44              0.0000000000
      5236        44  CHL1      H22A          -25.8596607832        7.6044125268        5.8639500000  MEMB      44              0.0000000000
      5237        44  CHL1      H22B          -27.3992254762        7.4737354211        6.9660400000  MEMB      44              0.0000000000
      5238        44  CHL1      C23           -27.1903698949        9.3217264349        5.9351600000  MEMB      44              0.0000000000
      5239        44  CHL1      H23A          -27.7442642087        9.9100194003        6.6976800000  MEMB      44              0.0000000000
      5240        44  CHL1      H23B          -26.4542997841       10.0435458088        5.5210500000  MEMB      44              0.0000000000
      5241        44  CHL1      C24           -28.0882775659        9.0011091421        4.6563700000  MEMB      44              0.0000000000
      5242        44  CHL1      H24A          -28.7589511056        8.1810919526        4.9911600000  MEMB      44              0.0000000000
      5243        44  CHL1      H24B          -28.7892979306        9.8517300024        4.5173200000  MEMB      44              0.0000000000
      5244        44  CHL1      C25           -27.4640468590        8.5110728015        3.3443500000  MEMB      44              0.0000000000
      5245        44  CHL1      H25           -26.7515177866        7.6912138681        3.5777000000  MEMB      44              0.0000000000
      5246        44  CHL1      C26           -28.6093611254        7.8911196956        2.4202000000  MEMB      44              0.0000000000
      5247        44  CHL1      H26A          -29.0737868760        8.6879198321        1.8007400000  MEMB      44              0.0000000000
      5248        44  CHL1      H26B          -28.1922842198        7.0923639086        1.7703000000  MEMB      44              0.0000000000
      5249        44  CHL1      H26C          -29.3814550664        7.4816319182        3.1061400000  MEMB      44              0.0000000000
      5250        44  CHL1      C27           -26.6877306770        9.5629335042        2.5255700000  MEMB      44              0.0000000000
      5251        44  CHL1      H27A          -25.9857336582       10.2068632241        3.0973000000  MEMB      44              0.0000000000
      5252        44  CHL1      H27B          -26.2501365899        9.2255011644        1.5617300000  MEMB      44              0.0000000000
      5253        44  CHL1      H27C          -27.3990950411       10.2953295749        2.0875300000  MEMB      44              0.0000000000
      5254        45  SAPE      N              19.6517962793       18.6569608882       20.9497311421  MEMB      45              0.0000000000
      5255        45  SAPE      HN1            19.9589054933       18.8632791734       21.9216964806  MEMB      45              0.0000000000
      5256        45  SAPE      HN2            18.6615376344       18.9668389168       21.0201806838  MEMB      45              0.0000000000
      5257        45  SAPE      HN3            19.6601278500       17.6401987749       20.7312697084  MEMB      45              0.0000000000
      5258        45  SAPE      C12            20.3611524042       19.5012867144       19.9574135830  MEMB      45              0.0000000000
      5259        45  SAPE      H12A           20.1229457630       20.5293897025       20.3046636827  MEMB      45              0.0000000000
      5260        45  SAPE      H12B           19.9729948065       19.2114469167       18.9575898514  MEMB      45              0.0000000000
      5261        45  SAPE      C11            21.8851381932       19.2224853526       20.0663647106  MEMB      45              0.0000000000
      5262        45  SAPE      H11A           22.1770830701       19.1684569489       21.1369579951  MEMB      45              0.0000000000
      5263        45  SAPE      H11B           22.3613206869       20.1804427576       19.7665498269  MEMB      45              0.0000000000
      5264        45  SAPE      P              23.3000417677       17.0953526998       19.7921782904  MEMB      45              0.0000000000
      5265        45  SAPE      O13            22.7694132206       16.7234273392       21.1469794982  MEMB      45              0.0000000000
      5266        45  SAPE      O14            23.6098794125       16.0718867346       18.8149783328  MEMB      45              0.0000000000
      5267        45  SAPE      O12            22.3493341675       18.2194572696       19.1555923037  MEMB      45              0.0000000000
      5268        45  SAPE      O11            24.6182349534       18.0191485756       20.1167621755  MEMB      45              0.0000000000
      5269        45  SAPE      C1             25.6115909135       18.1925278615       19.0882946076  MEMB      45              0.0000000000
      5270        45  SAPE      HA             26.6211454219       18.2756538602       19.5445956122  MEMB      45              0.0000000000
      5271        45  SAPE      HB             25.6423757814       17.3301538452       18.3885201693  MEMB      45              0.0000000000
      5272        45  SAPE      C2             25.4113854502       19.4759991265       18.3028620109  MEMB      45              0.0000000000
      5273        45  SAPE      HS             25.2270875775       20.3920309440       18.9038952139  MEMB      45              0.0000000000
      5274        45  SAPE      O21            24.3394951153       19.3351693752       17.3128329539  MEMB      45              0.0000000000
      5275        45  SAPE      C21            23.6201437305       20.4016868654       17.0451429878  MEMB      45              0.0000000000
      5276        45  SAPE      O22            23.9501383469       21.5449848949       17.3764076769  MEMB      45              0.0000000000
      5277        45  SAPE      C22            22.3954517855       20.1086771360       16.1780043728  MEMB      45              0.0000000000
      5278        45  SAPE      H2R            21.5469580608       19.9502245087       16.8774843358  MEMB      45              0.0000000000
      5279        45  SAPE      H2S            21.9628035866       21.0023807612       15.6795762564  MEMB      45              0.0000000000
      5280        45  SAPE      C3             26.6948956380       19.6887782353       17.4764583415  MEMB      45              0.0000000000
      5281        45  SAPE      HX             27.5836819496       19.7506756721       18.1401967481  MEMB      45              0.0000000000
      5282        45  SAPE      HY             26.7761330898       20.6667183881       16.9555414274  MEMB      45              0.0000000000
      5283        45  SAPE      O31            26.9791680319       18.6143609643       16.6023625567  MEMB      45              0.0000000000
      5284        45  SAPE      C31            26.4893108581       18.7358611850       15.3862822343  MEMB      45              0.0000000000
      5285        45  SAPE      O32            25.9789519392       19.7213414953       14.9139766712  MEMB      45              0.0000000000
      5286        45  SAPE      C32            26.8653398013       17.4811558812       14.6178682621  MEMB      45              0.0000000000
      5287        45  SAPE      H2X            26.2473554091       16.5794740232       14.8163277579  MEMB      45              0.0000000000
      5288        45  SAPE      H2Y            27.9421217435       17.3218936389       14.8403477480  MEMB      45              0.0000000000
      5289        45  SAPE      C23            22.5800310053       18.9120908427       15.2086171833  MEMB      45              0.0000000000
      5290        45  SAPE      H3R            23.0245728412       18.0640698376       15.7721455385  MEMB      45              0.0000000000
      5291        45  SAPE      H3S            23.2862960084       19.3154490360       14.4517731961  MEMB      45              0.0000000000
      5292        45  SAPE      C24            21.2330129756       18.4576694244       14.5930417179  MEMB      45              0.0000000000
      5293        45  SAPE      H4R            20.6354412370       19.3065103826       14.1971906687  MEMB      45              0.0000000000
      5294        45  SAPE      H4S            20.7041671541       17.9966569408       15.4544998329  MEMB      45              0.0000000000
      5295        45  SAPE      C25            21.4135646570       17.3838774482       13.4896147753  MEMB      45              0.0000000000
      5296        45  SAPE      H5R            21.2624729471       16.3092787082       13.6696394010  MEMB      45              0.0000000000
      5297        45  SAPE      C26            21.6619036094       17.6987234087       12.2113688662  MEMB      45              0.0000000000
      5298        45  SAPE      H6R            21.6866888731       16.9031105651       11.4521675425  MEMB      45              0.0000000000
      5299        45  SAPE      C27            21.8610250914       19.1231738805       11.7179049958  MEMB      45              0.0000000000
      5300        45  SAPE      H7R            22.6366680296       19.0597553322       10.9250135259  MEMB      45              0.0000000000
      5301        45  SAPE      H7S            22.1715824231       19.8327236195       12.5144065885  MEMB      45              0.0000000000
      5302        45  SAPE      C28            20.5924391343       19.6506324654       11.1349652801  MEMB      45              0.0000000000
      5303        45  SAPE      H8R            20.0529695628       20.4186067604       11.7087150630  MEMB      45              0.0000000000
      5304        45  SAPE      C29            20.0712787059       19.4558092678        9.8506081983  MEMB      45              0.0000000000
      5305        45  SAPE      H9R            19.1143501063       19.9405119401        9.6069876072  MEMB      45              0.0000000000
      5306        45  SAPE      C210           20.6911976601       18.5853527802        8.7580341795  MEMB      45              0.0000000000
      5307        45  SAPE      H10R           20.3520447717       17.5520419377        8.9851137380  MEMB      45              0.0000000000
      5308        45  SAPE      H10S           21.7753523806       18.4748870875        8.9741981508  MEMB      45              0.0000000000
      5309        45  SAPE      C211           20.5585674369       18.9795833445        7.3612030028  MEMB      45              0.0000000000
      5310        45  SAPE      H11R           20.6275769302       20.0568619340        7.1497587688  MEMB      45              0.0000000000
      5311        45  SAPE      C212           20.4476073685       18.2219259787        6.2717582074  MEMB      45              0.0000000000
      5312        45  SAPE      H12R           20.2836397490       18.7845753063        5.3408770269  MEMB      45              0.0000000000
      5313        45  SAPE      C213           20.4185038830       16.6824645271        6.1961876774  MEMB      45              0.0000000000
      5314        45  SAPE      H13R           19.4592175082       16.3565107238        6.6520875976  MEMB      45              0.0000000000
      5315        45  SAPE      H13S           21.1489413118       16.1903270449        6.8733751772  MEMB      45              0.0000000000
      5316        45  SAPE      C214           20.5862696179       16.1223436097        4.7831126174  MEMB      45              0.0000000000
      5317        45  SAPE      H14R           19.5835404080       15.8528473332        4.4199236823  MEMB      45              0.0000000000
      5318        45  SAPE      C215           21.6902716960       15.9050906651        4.0259910199  MEMB      45              0.0000000000
      5319        45  SAPE      H15R           21.3773405847       15.3001268115        3.1622248093  MEMB      45              0.0000000000
      5320        45  SAPE      C216           23.1743043339       16.1025712474        4.2013392635  MEMB      45              0.0000000000
      5321        45  SAPE      H16R           23.6343151353       16.2427762554        5.2028651068  MEMB      45              0.0000000000
      5322        45  SAPE      H16S           23.4085064457       17.0012376371        3.5915293670  MEMB      45              0.0000000000
      5323        45  SAPE      C217           24.1062237673       14.9089521062        3.7617243848  MEMB      45              0.0000000000
      5324        45  SAPE      H17R           23.8597384276       14.5435236881        2.7419069310  MEMB      45              0.0000000000
      5325        45  SAPE      H17S           23.8540598364       14.0313488561        4.3946122465  MEMB      45              0.0000000000
      5326        45  SAPE      C218           25.6778360521       15.2134379721        3.9093876247  MEMB      45              0.0000000000
      5327        45  SAPE      H18R           26.2012020622       14.2517614100        3.7207410442  MEMB      45              0.0000000000
      5328        45  SAPE      H18S           26.0245448991       15.6329816571        4.8779409854  MEMB      45              0.0000000000
      5329        45  SAPE      C219           25.9771936495       16.1410202393        2.6998901121  MEMB      45              0.0000000000
      5330        45  SAPE      H19R           25.3791339646       17.0639879010        2.8572929388  MEMB      45              0.0000000000
      5331        45  SAPE      H19S           25.5614302133       15.6258869549        1.8076445983  MEMB      45              0.0000000000
      5332        45  SAPE      C220           27.4081305554       16.4104144236        2.3166137662  MEMB      45              0.0000000000
      5333        45  SAPE      H20R           27.5697456783       17.2406930447        1.5963078833  MEMB      45              0.0000000000
      5334        45  SAPE      H20S           27.8726364778       15.4287607043        2.0822811628  MEMB      45              0.0000000000
      5335        45  SAPE      H20T           27.8993221202       16.7939584217        3.2363656590  MEMB      45              0.0000000000
      5336        45  SAPE      C33            27.0360230714       17.7403213742       13.0902478842  MEMB      45              0.0000000000
      5337        45  SAPE      H3X            27.8263974999       18.4959379379       12.8935940587  MEMB      45              0.0000000000
      5338        45  SAPE      H3Y            26.1009667112       18.1600013528       12.6614598654  MEMB      45              0.0000000000
      5339        45  SAPE      C34            27.4189801292       16.5103910696       12.3368708022  MEMB      45              0.0000000000
      5340        45  SAPE      H4X            28.1540835084       15.8934153126       12.8965894874  MEMB      45              0.0000000000
      5341        45  SAPE      H4Y            27.9418098179       16.7680239897       11.3910399232  MEMB      45              0.0000000000
      5342        45  SAPE      C35            26.3059185650       15.4610408431       12.0688603025  MEMB      45              0.0000000000
      5343        45  SAPE      H5X            25.8108824831       15.1202154894       13.0032572508  MEMB      45              0.0000000000
      5344        45  SAPE      H5Y            26.8030358192       14.5449192556       11.6842604307  MEMB      45              0.0000000000
      5345        45  SAPE      C36            25.1140965460       15.9259260225       11.1580195036  MEMB      45              0.0000000000
      5346        45  SAPE      H6X            24.4463014376       16.5306733331       11.8081350461  MEMB      45              0.0000000000
      5347        45  SAPE      H6Y            24.4379261279       15.1042850800       10.8386126074  MEMB      45              0.0000000000
      5348        45  SAPE      C37            25.4800009361       16.9010973660       10.1028549124  MEMB      45              0.0000000000
      5349        45  SAPE      H7X            26.4433847343       16.7282066782        9.5771927417  MEMB      45              0.0000000000
      5350        45  SAPE      H7Y            25.5980267440       17.8742912790       10.6256209350  MEMB      45              0.0000000000
      5351        45  SAPE      C38            24.4326480822       16.9885988586        8.9919476065  MEMB      45              0.0000000000
      5352        45  SAPE      H8X            23.4724924605       16.6707363708        9.4517145213  MEMB      45              0.0000000000
      5353        45  SAPE      H8Y            24.5622389295       16.1243353701        8.3059622067  MEMB      45              0.0000000000
      5354        45  SAPE      C39            24.3707220659       18.2711426355        8.2446687690  MEMB      45              0.0000000000
      5355        45  SAPE      H9X            24.1937203034       19.0937238787        8.9701695193  MEMB      45              0.0000000000
      5356        45  SAPE      H9Y            23.5182902215       18.2572076578        7.5322876339  MEMB      45              0.0000000000
      5357        45  SAPE      C310           25.6181954952       18.6727371348        7.4648698102  MEMB      45              0.0000000000
      5358        45  SAPE      H10X           25.7782935591       17.9571670320        6.6302143916  MEMB      45              0.0000000000
      5359        45  SAPE      H10Y           26.4959814502       18.4232249612        8.0985543107  MEMB      45              0.0000000000
      5360        45  SAPE      C311           25.6122482739       20.1405862055        6.8253964923  MEMB      45              0.0000000000
      5361        45  SAPE      H11X           26.4870784881       20.2733731754        6.1535626409  MEMB      45              0.0000000000
      5362        45  SAPE      H11Y           25.8654811492       20.7606412216        7.7118082321  MEMB      45              0.0000000000
      5363        45  SAPE      C312           24.3049729184       20.7246450017        6.2301812476  MEMB      45              0.0000000000
      5364        45  SAPE      H12X           24.4907189874       21.8176180934        6.1578657672  MEMB      45              0.0000000000
      5365        45  SAPE      H12Y           23.4119987171       20.5545695779        6.8689233000  MEMB      45              0.0000000000
      5366        45  SAPE      C313           23.8176637187       20.1966264154        4.8940353632  MEMB      45              0.0000000000
      5367        45  SAPE      H13X           23.4444174666       19.1868517746        5.1685593638  MEMB      45              0.0000000000
      5368        45  SAPE      H13Y           24.7050221318       19.9354280632        4.2786570619  MEMB      45              0.0000000000
      5369        45  SAPE      C314           22.7757464193       21.1782285991        4.3193150916  MEMB      45              0.0000000000
      5370        45  SAPE      H14X           23.1505753740       22.2155134712        4.4529728847  MEMB      45              0.0000000000
      5371        45  SAPE      H14Y           21.9710823160       21.0559884861        5.0755520218  MEMB      45              0.0000000000
      5372        45  SAPE      C315           22.2651958460       20.9011768886        2.9018888924  MEMB      45              0.0000000000
      5373        45  SAPE      H15X           21.3231338542       21.4755738920        2.7718561504  MEMB      45              0.0000000000
      5374        45  SAPE      H15Y           21.8969898236       19.8678941334        2.7256161796  MEMB      45              0.0000000000
      5375        45  SAPE      C316           23.3018966885       21.2626698832        1.7784883913  MEMB      45              0.0000000000
      5376        45  SAPE      H16X           23.9237947408       22.0765489187        2.2087967352  MEMB      45              0.0000000000
      5377        45  SAPE      H16Y           22.8417779205       21.7116242590        0.8723695593  MEMB      45              0.0000000000
      5378        45  SAPE      C317           24.1988246379       20.1626945330        1.1507607762  MEMB      45              0.0000000000
      5379        45  SAPE      H17X           24.7370036776       19.6013881244        1.9442460898  MEMB      45              0.0000000000
      5380        45  SAPE      H17Y           24.9300831926       20.7118530081        0.5198823292  MEMB      45              0.0000000000
      5381        45  SAPE      C318           23.5040513084       19.2131559341        0.2429106116  MEMB      45              0.0000000000
      5382        45  SAPE      H18X           22.5445941964       18.7891862430        0.6089875335  MEMB      45              0.0000000000
      5383        45  SAPE      H18Y           24.1765997038       18.4039077340       -0.1136233021  MEMB      45              0.0000000000
      5384        45  SAPE      H18Z           23.1576558043       19.7066489583       -0.6902539837  MEMB      45              0.0000000000
      5385        46  CHL1      C3            -12.9524352817      -26.1482342068       17.3248700000  MEMB      46              0.0000000000
      5386        46  CHL1      H3            -13.3043564296      -25.1303320732       17.0521900000  MEMB      46              0.0000000000
      5387        46  CHL1      O3            -12.7869605917      -26.3595445932       18.6751300000  MEMB      46              0.0000000000
      5388        46  CHL1      H3'           -12.3837724339      -25.5735703585       19.0510100000  MEMB      46              0.0000000000
      5389        46  CHL1      C4            -14.1085062732      -27.0083962651       16.7317400000  MEMB      46              0.0000000000
      5390        46  CHL1      H4A           -13.7967332903      -28.0373456672       17.0117200000  MEMB      46              0.0000000000
      5391        46  CHL1      H4B           -14.9754222891      -26.8382998903       17.4054200000  MEMB      46              0.0000000000
      5392        46  CHL1      C5            -14.3824734671      -26.7508728481       15.2974500000  MEMB      46              0.0000000000
      5393        46  CHL1      C6            -15.5996772989      -26.4068383035       14.8576300000  MEMB      46              0.0000000000
      5394        46  CHL1      H6            -16.4569829116      -26.3685502265       15.5457900000  MEMB      46              0.0000000000
      5395        46  CHL1      C7            -15.9231639542      -26.2500915615       13.4283800000  MEMB      46              0.0000000000
      5396        46  CHL1      H7A           -16.8842622275      -26.7814314199       13.2602000000  MEMB      46              0.0000000000
      5397        46  CHL1      H7B           -16.0789356118      -25.2056849867       13.0830000000  MEMB      46              0.0000000000
      5398        46  CHL1      C8            -14.8137261770      -26.8677932716       12.5325600000  MEMB      46              0.0000000000
      5399        46  CHL1      H8            -14.9707765053      -27.9528177217       12.3526000000  MEMB      46              0.0000000000
      5400        46  CHL1      C14           -15.0139598386      -26.4083619639       11.0974700000  MEMB      46              0.0000000000
      5401        46  CHL1      H14           -14.9101319541      -25.3041753510       11.1631100000  MEMB      46              0.0000000000
      5402        46  CHL1      C15           -16.3946201475      -26.6608481604       10.4681700000  MEMB      46              0.0000000000
      5403        46  CHL1      H15A          -16.8782624350      -27.6510869723       10.6090100000  MEMB      46              0.0000000000
      5404        46  CHL1      H15B          -17.0699702314      -25.8383250651       10.7870300000  MEMB      46              0.0000000000
      5405        46  CHL1      C16           -16.1342280929      -26.4633170772        8.9891700000  MEMB      46              0.0000000000
      5406        46  CHL1      H16A          -16.4606662625      -27.4227009475        8.5338200000  MEMB      46              0.0000000000
      5407        46  CHL1      H16B          -16.5994238654      -25.5067245223        8.6684600000  MEMB      46              0.0000000000
      5408        46  CHL1      C17           -14.6069669420      -26.2420419994        8.8633500000  MEMB      46              0.0000000000
      5409        46  CHL1      H17           -14.4224906861      -25.1637168770        9.0570000000  MEMB      46              0.0000000000
      5410        46  CHL1      C13           -14.0011255918      -26.9294944371       10.0737400000  MEMB      46              0.0000000000
      5411        46  CHL1      C18           -14.2246223734      -28.4894000796        9.9243000000  MEMB      46              0.0000000000
      5412        46  CHL1      H18A          -15.2875927281      -28.8052276014        9.9925500000  MEMB      46              0.0000000000
      5413        46  CHL1      H18B          -13.9423945291      -28.8296770987        8.9050400000  MEMB      46              0.0000000000
      5414        46  CHL1      H18C          -13.6674707762      -29.1022929971       10.6647500000  MEMB      46              0.0000000000
      5415        46  CHL1      C12           -12.5588588689      -26.5325461392       10.5486800000  MEMB      46              0.0000000000
      5416        46  CHL1      H12A          -11.7939224347      -27.0228776677        9.9093300000  MEMB      46              0.0000000000
      5417        46  CHL1      H12B          -12.3651289646      -25.4546602115       10.3616800000  MEMB      46              0.0000000000
      5418        46  CHL1      C11           -12.2456944510      -26.8873659715       11.9753400000  MEMB      46              0.0000000000
      5419        46  CHL1      H11A          -12.1629470996      -27.9949596686       12.0017200000  MEMB      46              0.0000000000
      5420        46  CHL1      H11B          -11.2968644930      -26.3843456159       12.2599800000  MEMB      46              0.0000000000
      5421        46  CHL1      C9            -13.3571897141      -26.5274256729       12.9989900000  MEMB      46              0.0000000000
      5422        46  CHL1      H9            -13.4535087393      -25.4225794968       13.0650500000  MEMB      46              0.0000000000
      5423        46  CHL1      C10           -13.1119482897      -26.9454297713       14.4464400000  MEMB      46              0.0000000000
      5424        46  CHL1      C19           -12.8562758169      -28.4581153904       14.5838000000  MEMB      46              0.0000000000
      5425        46  CHL1      H19A          -12.5114110950      -28.8062009282       15.5809100000  MEMB      46              0.0000000000
      5426        46  CHL1      H19B          -13.6797280066      -29.0533939582       14.1344600000  MEMB      46              0.0000000000
      5427        46  CHL1      H19C          -11.9313722174      -28.6383300382       13.9952600000  MEMB      46              0.0000000000
      5428        46  CHL1      C1            -11.8909084775      -26.1581521945       15.0442200000  MEMB      46              0.0000000000
      5429        46  CHL1      H1A           -10.9725564759      -26.3756366044       14.4580000000  MEMB      46              0.0000000000
      5430        46  CHL1      H1B           -11.9964674899      -25.0571345998       14.9396400000  MEMB      46              0.0000000000
      5431        46  CHL1      C2            -11.6465178037      -26.3907898754       16.5112100000  MEMB      46              0.0000000000
      5432        46  CHL1      H2A           -10.9364390793      -25.7020290405       17.0169100000  MEMB      46              0.0000000000
      5433        46  CHL1      H2B           -11.2594842526      -27.4226789012       16.6516700000  MEMB      46              0.0000000000
      5434        46  CHL1      C20           -14.0998718183      -26.5495555758        7.4108900000  MEMB      46              0.0000000000
      5435        46  CHL1      H20           -14.4746747592      -27.5824899334        7.2469400000  MEMB      46              0.0000000000
      5436        46  CHL1      C21           -12.5977214493      -26.4122196802        7.0884200000  MEMB      46              0.0000000000
      5437        46  CHL1      H21A          -11.9966261481      -27.2556201834        7.4905100000  MEMB      46              0.0000000000
      5438        46  CHL1      H21B          -12.2523805289      -25.4084916772        7.4164200000  MEMB      46              0.0000000000
      5439        46  CHL1      H21C          -12.3412015296      -26.5648131914        6.0182600000  MEMB      46              0.0000000000
      5440        46  CHL1      C22           -14.8320358272      -25.6689834759        6.3355600000  MEMB      46              0.0000000000
      5441        46  CHL1      H22A          -15.9268732487      -25.7746812660        6.4920200000  MEMB      46              0.0000000000
      5442        46  CHL1      H22B          -14.5105056276      -24.6217944263        6.5208200000  MEMB      46              0.0000000000
      5443        46  CHL1      C23           -14.5498946735      -26.2073425761        4.9054600000  MEMB      46              0.0000000000
      5444        46  CHL1      H23A          -13.6701570346      -25.6348146105        4.5413400000  MEMB      46              0.0000000000
      5445        46  CHL1      H23B          -14.1921729500      -27.2581378964        4.9523300000  MEMB      46              0.0000000000
      5446        46  CHL1      C24           -15.7892294911      -26.0631602969        3.9780000000  MEMB      46              0.0000000000
      5447        46  CHL1      H24A          -16.6798365530      -26.6254208751        4.3315500000  MEMB      46              0.0000000000
      5448        46  CHL1      H24B          -16.1891191745      -25.0289072364        4.0467000000  MEMB      46              0.0000000000
      5449        46  CHL1      C25           -15.4330565885      -26.5253714586        2.5358300000  MEMB      46              0.0000000000
      5450        46  CHL1      H25           -14.4892015988      -26.0030004780        2.2701400000  MEMB      46              0.0000000000
      5451        46  CHL1      C26           -15.3046357174      -28.0060500336        2.2871200000  MEMB      46              0.0000000000
      5452        46  CHL1      H26A          -16.2187203043      -28.6367587493        2.3186600000  MEMB      46              0.0000000000
      5453        46  CHL1      H26B          -14.8885339768      -28.1583207849        1.2683000000  MEMB      46              0.0000000000
      5454        46  CHL1      H26C          -14.6538881444      -28.4554552236        3.0674300000  MEMB      46              0.0000000000
      5455        46  CHL1      C27           -16.4206979419      -25.9821565801        1.4539300000  MEMB      46              0.0000000000
      5456        46  CHL1      H27A          -15.9726605502      -25.8066659111        0.4525400000  MEMB      46              0.0000000000
      5457        46  CHL1      H27B          -17.2147547600      -26.7388322784        1.2771500000  MEMB      46              0.0000000000
      5458        46  CHL1      H27C          -16.6969728546      -24.9400982797        1.7224400000  MEMB      46              0.0000000000
      5459        47  SAPS      N              -9.2467259581       25.6496855577       19.4319240527  MEMB      47              0.0000000000
      5460        47  SAPS      HN1            -8.6847770872       24.8279778313       19.7329389792  MEMB      47              0.0000000000
      5461        47  SAPS      HN2            -9.8158677062       25.3287935024       18.6227850481  MEMB      47              0.0000000000
      5462        47  SAPS      HN3            -8.5772014984       26.3489230959       19.0519188270  MEMB      47              0.0000000000
      5463        47  SAPS      C12           -10.0120162859       26.1531083943       20.6102972594  MEMB      47              0.0000000000
      5464        47  SAPS      H12A          -10.1732245824       25.2883901810       21.2369346171  MEMB      47              0.0000000000
      5465        47  SAPS      C13            -9.3930358438       27.3498981614       21.3084650407  MEMB      47              0.0000000000
      5466        47  SAPS      O13A           -8.2744886829       27.7848032664       20.9947863881  MEMB      47              0.0000000000
      5467        47  SAPS      O13B           -9.9712670173       27.7040809087       22.4029814296  MEMB      47              0.0000000000
      5468        47  SAPS      C11           -11.3179614366       26.6608940069       20.0684926638  MEMB      47              0.0000000000
      5469        47  SAPS      H11A          -11.1276981650       27.4298623976       19.2895134810  MEMB      47              0.0000000000
      5470        47  SAPS      H11B          -11.8689180874       27.0362060052       20.9572607523  MEMB      47              0.0000000000
      5471        47  SAPS      P             -13.6708109940       25.8056490938       19.0197455979  MEMB      47              0.0000000000
      5472        47  SAPS      O13           -13.9363401378       24.9569434834       17.8662714683  MEMB      47              0.0000000000
      5473        47  SAPS      O14           -14.5193694563       25.5775088455       20.1798944418  MEMB      47              0.0000000000
      5474        47  SAPS      O12           -12.1459322096       25.6100031561       19.4939726733  MEMB      47              0.0000000000
      5475        47  SAPS      O11           -13.7020400355       27.3169901332       18.6231689472  MEMB      47              0.0000000000
      5476        47  SAPS      C1            -14.9539262159       27.9779061115       18.8850909809  MEMB      47              0.0000000000
      5477        47  SAPS      HA            -15.7979270883       27.3093598956       19.1590060537  MEMB      47              0.0000000000
      5478        47  SAPS      HB            -14.8348308029       28.6808106925       19.7371838744  MEMB      47              0.0000000000
      5479        47  SAPS      C2            -15.3909193698       28.8124620737       17.6377061956  MEMB      47              0.0000000000
      5480        47  SAPS      HS            -16.4730732993       29.0612749897       17.6008734873  MEMB      47              0.0000000000
      5481        47  SAPS      O21           -15.1882059499       28.0888955108       16.4016849646  MEMB      47              0.0000000000
      5482        47  SAPS      C21           -15.9539187502       27.1153527388       16.0258732995  MEMB      47              0.0000000000
      5483        47  SAPS      O22           -16.9290313362       26.7800184074       16.6159528237  MEMB      47              0.0000000000
      5484        47  SAPS      C22           -15.3020922431       26.3386299053       14.8679221914  MEMB      47              0.0000000000
      5485        47  SAPS      H2R           -14.4020583128       26.8704640547       14.4918739711  MEMB      47              0.0000000000
      5486        47  SAPS      H2S           -14.8455985163       25.4491222831       15.3523919876  MEMB      47              0.0000000000
      5487        47  SAPS      C3            -14.7183278915       30.2024316354       17.4803803691  MEMB      47              0.0000000000
      5488        47  SAPS      HX            -15.0107254636       30.7702880366       18.3894256737  MEMB      47              0.0000000000
      5489        47  SAPS      HY            -15.0712883596       30.7967043279       16.6105644472  MEMB      47              0.0000000000
      5490        47  SAPS      O31           -13.2896514193       30.0211204091       17.5220028975  MEMB      47              0.0000000000
      5491        47  SAPS      C31           -12.6052152221       29.7409179276       16.3721196419  MEMB      47              0.0000000000
      5492        47  SAPS      O32           -13.0436531871       29.8828709974       15.2461696303  MEMB      47              0.0000000000
      5493        47  SAPS      C32           -11.1294308293       29.1871764959       16.6686378635  MEMB      47              0.0000000000
      5494        47  SAPS      H2X           -11.1157427144       28.5724534724       17.5939750714  MEMB      47              0.0000000000
      5495        47  SAPS      H2Y           -10.7242666243       30.1833697643       16.9474963374  MEMB      47              0.0000000000
      5496        47  SAPS      C23           -16.3168881938       25.7927474470       13.8565615688  MEMB      47              0.0000000000
      5497        47  SAPS      H3R           -16.7787518288       26.6628471464       13.3428209619  MEMB      47              0.0000000000
      5498        47  SAPS      H3S           -16.9975672290       25.1433190265       14.4475267652  MEMB      47              0.0000000000
      5499        47  SAPS      C24           -15.5913744703       24.9367864874       12.7672054481  MEMB      47              0.0000000000
      5500        47  SAPS      H4R           -15.1691513026       23.9776173190       13.1360458395  MEMB      47              0.0000000000
      5501        47  SAPS      H4S           -14.6074810902       25.3721949070       12.4902681260  MEMB      47              0.0000000000
      5502        47  SAPS      C25           -16.4990283613       24.8071802593       11.5091460000  MEMB      47              0.0000000000
      5503        47  SAPS      H5R           -17.4487915628       24.3627370928       11.8414418844  MEMB      47              0.0000000000
      5504        47  SAPS      C26           -16.4086238018       25.4610426569       10.3632941390  MEMB      47              0.0000000000
      5505        47  SAPS      H6R           -17.1533932068       25.3399249298        9.5628888250  MEMB      47              0.0000000000
      5506        47  SAPS      C27           -15.3081022203       26.4326120618       10.0702980985  MEMB      47              0.0000000000
      5507        47  SAPS      H7R           -15.1811682413       26.6372876303        8.9857164959  MEMB      47              0.0000000000
      5508        47  SAPS      H7S           -14.3760903801       25.9788446479       10.4700105263  MEMB      47              0.0000000000
      5509        47  SAPS      C28           -15.3434953524       27.8809506450       10.5799730667  MEMB      47              0.0000000000
      5510        47  SAPS      H8R           -16.1569779597       28.0990457749       11.2875606414  MEMB      47              0.0000000000
      5511        47  SAPS      C29           -14.5668782544       28.9227865618       10.2097943720  MEMB      47              0.0000000000
      5512        47  SAPS      H9R           -14.7091029712       29.8735730352       10.7443754956  MEMB      47              0.0000000000
      5513        47  SAPS      C210          -13.3866886121       28.8468633205        9.1522925294  MEMB      47              0.0000000000
      5514        47  SAPS      H10R          -13.4327722881       27.8059559735        8.7666641330  MEMB      47              0.0000000000
      5515        47  SAPS      H10S          -12.3784307326       28.9150832183        9.6139011444  MEMB      47              0.0000000000
      5516        47  SAPS      C211          -13.6371029208       29.8783271768        8.0285090155  MEMB      47              0.0000000000
      5517        47  SAPS      H11R          -13.0792620381       30.8094962269        8.2066598603  MEMB      47              0.0000000000
      5518        47  SAPS      C212          -14.3484612994       29.7306818353        6.8802416494  MEMB      47              0.0000000000
      5519        47  SAPS      H12R          -14.4893995578       30.5510787337        6.1611555046  MEMB      47              0.0000000000
      5520        47  SAPS      C213          -15.0652681655       28.4448335033        6.5449464869  MEMB      47              0.0000000000
      5521        47  SAPS      H13R          -14.8361364717       27.5791786168        7.2025651560  MEMB      47              0.0000000000
      5522        47  SAPS      H13S          -14.7595898748       28.1516486648        5.5178511962  MEMB      47              0.0000000000
      5523        47  SAPS      C214          -16.5789570573       28.6289310170        6.5889405049  MEMB      47              0.0000000000
      5524        47  SAPS      H14R          -16.9390727799       29.6373376243        6.8407989466  MEMB      47              0.0000000000
      5525        47  SAPS      C215          -17.5020678462       27.6510082574        6.3091611346  MEMB      47              0.0000000000
      5526        47  SAPS      H15R          -18.5302834749       28.0298983115        6.4051560587  MEMB      47              0.0000000000
      5527        47  SAPS      C216          -17.2975774155       26.2550162651        5.9074235881  MEMB      47              0.0000000000
      5528        47  SAPS      H16R          -17.8218566191       25.4291741506        6.4341461668  MEMB      47              0.0000000000
      5529        47  SAPS      H16S          -16.2278588931       25.9591117096        5.8577870143  MEMB      47              0.0000000000
      5530        47  SAPS      C217          -17.7128395247       26.2054515648        4.3683240629  MEMB      47              0.0000000000
      5531        47  SAPS      H17R          -16.9186827043       26.7220662705        3.7880262692  MEMB      47              0.0000000000
      5532        47  SAPS      H17S          -18.7337993858       26.6048064319        4.1881078358  MEMB      47              0.0000000000
      5533        47  SAPS      C218          -17.7116588046       24.7632750845        3.8660019418  MEMB      47              0.0000000000
      5534        47  SAPS      H18R          -18.5718819656       24.2137762069        4.3046231103  MEMB      47              0.0000000000
      5535        47  SAPS      H18S          -16.8256959074       24.2390533208        4.2838327531  MEMB      47              0.0000000000
      5536        47  SAPS      C219          -17.5914535972       24.6455784425        2.4096668492  MEMB      47              0.0000000000
      5537        47  SAPS      H19R          -16.5993119761       25.0659169300        2.1389419572  MEMB      47              0.0000000000
      5538        47  SAPS      H19S          -18.3153691217       25.3414330620        1.9342150356  MEMB      47              0.0000000000
      5539        47  SAPS      C220          -17.7663958342       23.2254594605        1.8443823905  MEMB      47              0.0000000000
      5540        47  SAPS      H20R          -18.2714646808       23.2688445710        0.8557739855  MEMB      47              0.0000000000
      5541        47  SAPS      H20S          -18.4002207655       22.6176174983        2.5249082602  MEMB      47              0.0000000000
      5542        47  SAPS      H20T          -16.7694039528       22.7412908798        1.7675142146  MEMB      47              0.0000000000
      5543        47  SAPS      C33           -10.5291816916       28.5518410036       15.4133219562  MEMB      47              0.0000000000
      5544        47  SAPS      H3X            -9.4444526170       28.6905881281       15.6093654711  MEMB      47              0.0000000000
      5545        47  SAPS      H3Y           -10.7137255046       29.2913595672       14.6050046242  MEMB      47              0.0000000000
      5546        47  SAPS      C34           -10.9734042843       27.1488691058       15.3049888480  MEMB      47              0.0000000000
      5547        47  SAPS      H4X           -12.0573334609       27.2190042437       15.0715369913  MEMB      47              0.0000000000
      5548        47  SAPS      H4Y           -10.7752733440       26.7528237935       16.3239161291  MEMB      47              0.0000000000
      5549        47  SAPS      C35           -10.2299032105       26.3562287968       14.2400676464  MEMB      47              0.0000000000
      5550        47  SAPS      H5X           -10.5720805877       25.3183894692       14.4403802982  MEMB      47              0.0000000000
      5551        47  SAPS      H5Y            -9.1231000854       26.4108308149       14.3196062549  MEMB      47              0.0000000000
      5552        47  SAPS      C36           -10.6043783313       26.6717973189       12.7452336592  MEMB      47              0.0000000000
      5553        47  SAPS      H6X           -10.0577014079       27.6015679661       12.4787910168  MEMB      47              0.0000000000
      5554        47  SAPS      H6Y           -11.6944286349       26.8251796854       12.5949506280  MEMB      47              0.0000000000
      5555        47  SAPS      C37           -10.1640561371       25.6110689460       11.6522428505  MEMB      47              0.0000000000
      5556        47  SAPS      H7X           -11.0406355446       24.9318730619       11.5842547166  MEMB      47              0.0000000000
      5557        47  SAPS      H7Y            -9.1477823709       25.1674643318       11.7209689288  MEMB      47              0.0000000000
      5558        47  SAPS      C38           -10.1189656726       26.3324877780       10.2736845401  MEMB      47              0.0000000000
      5559        47  SAPS      H8X            -9.4455652677       27.1997760534       10.4429883123  MEMB      47              0.0000000000
      5560        47  SAPS      H8Y           -11.1492239052       26.7259876870       10.1393476217  MEMB      47              0.0000000000
      5561        47  SAPS      C39            -9.8411624047       25.3618561484        9.1603017604  MEMB      47              0.0000000000
      5562        47  SAPS      H9X           -10.4943609414       24.5014931559        9.4199709289  MEMB      47              0.0000000000
      5563        47  SAPS      H9Y            -8.7912229517       25.0225520288        9.2899973616  MEMB      47              0.0000000000
      5564        47  SAPS      C310          -10.0722520951       25.6633453867        7.6759237986  MEMB      47              0.0000000000
      5565        47  SAPS      H10X          -10.0639977188       24.6968389836        7.1280933288  MEMB      47              0.0000000000
      5566        47  SAPS      H10Y           -9.1620858246       26.1927027867        7.3213829405  MEMB      47              0.0000000000
      5567        47  SAPS      C311          -11.2803068935       26.5052404759        7.3789948787  MEMB      47              0.0000000000
      5568        47  SAPS      H11X          -11.0564373158       27.4996050009        7.8210842712  MEMB      47              0.0000000000
      5569        47  SAPS      H11Y          -12.1819897506       26.0671099584        7.8578801477  MEMB      47              0.0000000000
      5570        47  SAPS      C312          -11.5193786251       26.7942767820        5.9219819658  MEMB      47              0.0000000000
      5571        47  SAPS      H12X          -10.6123346513       26.9193289442        5.2927329858  MEMB      47              0.0000000000
      5572        47  SAPS      H12Y          -12.0745848032       27.7546119371        5.8601485056  MEMB      47              0.0000000000
      5573        47  SAPS      C313          -12.4556599007       25.7849061080        5.3108309456  MEMB      47              0.0000000000
      5574        47  SAPS      H13X          -13.5078181911       25.9079492724        5.6457104556  MEMB      47              0.0000000000
      5575        47  SAPS      H13Y          -12.1968647995       24.7284148806        5.5370439797  MEMB      47              0.0000000000
      5576        47  SAPS      C314          -12.5829282480       25.9839307778        3.7410859817  MEMB      47              0.0000000000
      5577        47  SAPS      H14X          -11.5823440985       26.1443100452        3.2856406049  MEMB      47              0.0000000000
      5578        47  SAPS      H14Y          -13.2200149191       26.8838348634        3.6046507585  MEMB      47              0.0000000000
      5579        47  SAPS      C315          -13.2763933324       24.7186546972        2.9867529147  MEMB      47              0.0000000000
      5580        47  SAPS      H15X          -14.2489096302       24.9589432722        2.5063413893  MEMB      47              0.0000000000
      5581        47  SAPS      H15Y          -13.4151760517       23.8196539758        3.6246080175  MEMB      47              0.0000000000
      5582        47  SAPS      C316          -12.3095446071       24.1760044590        1.9145783386  MEMB      47              0.0000000000
      5583        47  SAPS      H16X          -12.5092618425       23.1078187130        1.6834650412  MEMB      47              0.0000000000
      5584        47  SAPS      H16Y          -11.3324024996       24.2256616776        2.4409322704  MEMB      47              0.0000000000
      5585        47  SAPS      C317          -12.1663980454       25.0371218616        0.5835534383  MEMB      47              0.0000000000
      5586        47  SAPS      H17X          -11.8123126393       26.0475728482        0.8800899754  MEMB      47              0.0000000000
      5587        47  SAPS      H17Y          -13.1680576507       25.1085847327        0.1082739371  MEMB      47              0.0000000000
      5588        47  SAPS      C318          -11.1885409236       24.4467234678       -0.5273924708  MEMB      47              0.0000000000
      5589        47  SAPS      H18X          -11.1165595788       25.1994551718       -1.3413532479  MEMB      47              0.0000000000
      5590        47  SAPS      H18Y          -11.5834305989       23.5708960034       -1.0853427631  MEMB      47              0.0000000000
      5591        47  SAPS      H18Z          -10.2026268994       24.1819121582       -0.0890207453  MEMB      47              0.0000000000
      5592        48  POPC      N               5.1463698096       28.1174135340       20.2089644238  MEMB      48              0.0000000000
      5593        48  POPC      C12             4.7252268849       28.9451762124       19.1041479435  MEMB      48              0.0000000000
      5594        48  POPC      H12A            5.5795685505       29.4406483541       18.6671034541  MEMB      48              0.0000000000
      5595        48  POPC      H12B            4.0971503463       29.7733845634       19.3973896351  MEMB      48              0.0000000000
      5596        48  POPC      C13             5.7992488306       26.8917097641       19.7261551434  MEMB      48              0.0000000000
      5597        48  POPC      H13A            6.1713848529       26.3397355204       20.5765897112  MEMB      48              0.0000000000
      5598        48  POPC      H13B            5.0606307864       26.2851243128       19.2232658869  MEMB      48              0.0000000000
      5599        48  POPC      H13C            6.5784124765       27.1527461875       19.0253241624  MEMB      48              0.0000000000
      5600        48  POPC      C14             6.2085730100       28.8756815965       20.9461345656  MEMB      48              0.0000000000
      5601        48  POPC      H14A            7.0342782734       28.8764092229       20.2499950536  MEMB      48              0.0000000000
      5602        48  POPC      H14B            5.8801581775       29.8886220064       21.1263993470  MEMB      48              0.0000000000
      5603        48  POPC      H14C            6.3728205815       28.3121923194       21.8527229468  MEMB      48              0.0000000000
      5604        48  POPC      C15             3.9226070358       27.8603657480       21.0892393333  MEMB      48              0.0000000000
      5605        48  POPC      H15A            3.4993328196       28.8425222620       21.2395973030  MEMB      48              0.0000000000
      5606        48  POPC      H15B            4.2058318357       27.3483615090       21.9970034084  MEMB      48              0.0000000000
      5607        48  POPC      H15C            3.2035602615       27.3322331434       20.4805953446  MEMB      48              0.0000000000
      5608        48  POPC      C11             3.8521738861       28.3371376416       17.9689870017  MEMB      48              0.0000000000
      5609        48  POPC      H11A            4.3879348898       27.4789261256       17.5099072657  MEMB      48              0.0000000000
      5610        48  POPC      H11B            3.7326257518       29.0967615041       17.1671136747  MEMB      48              0.0000000000
      5611        48  POPC      P               1.2554323606       28.3397195763       18.0330172051  MEMB      48              0.0000000000
      5612        48  POPC      O13             1.2624125248       29.8097418668       18.2971778596  MEMB      48              0.0000000000
      5613        48  POPC      O14             0.2635991624       27.4487889596       18.6919984902  MEMB      48              0.0000000000
      5614        48  POPC      O12             2.6741965018       27.8358370570       18.5080062975  MEMB      48              0.0000000000
      5615        48  POPC      O11             1.1095305760       28.2035696419       16.4261717370  MEMB      48              0.0000000000
      5616        48  POPC      C1              1.2722932309       26.9000533591       15.9501656001  MEMB      48              0.0000000000
      5617        48  POPC      HA              0.5427627836       26.6985922100       15.1368270516  MEMB      48              0.0000000000
      5618        48  POPC      HB              1.1887431973       26.0882287054       16.7040098172  MEMB      48              0.0000000000
      5619        48  POPC      C2              2.7229576356       26.6333812055       15.2638994172  MEMB      48              0.0000000000
      5620        48  POPC      HS              3.3254774552       26.3670801906       16.1585361438  MEMB      48              0.0000000000
      5621        48  POPC      O21             3.2112103208       27.8832883265       14.8766815121  MEMB      48              0.0000000000
      5622        48  POPC      C21             4.5102650394       28.0510540947       14.6142789179  MEMB      48              0.0000000000
      5623        48  POPC      O22             5.3482304143       27.1660977967       14.6968782279  MEMB      48              0.0000000000
      5624        48  POPC      C22             4.7536798244       29.4871241114       14.0986087550  MEMB      48              0.0000000000
      5625        48  POPC      H2R             5.4237320474       30.0563463760       14.7778269919  MEMB      48              0.0000000000
      5626        48  POPC      H2S             3.7550951947       29.9724791073       14.0588576290  MEMB      48              0.0000000000
      5627        48  POPC      C3              2.7029602696       25.6207536127       14.0884333934  MEMB      48              0.0000000000
      5628        48  POPC      HX              2.1983042131       24.6749813610       14.3802523389  MEMB      48              0.0000000000
      5629        48  POPC      HY              3.7129199335       25.3361582171       13.7233199405  MEMB      48              0.0000000000
      5630        48  POPC      O31             2.0062515907       26.1297241705       12.9498129444  MEMB      48              0.0000000000
      5631        48  POPC      C31             2.2986341992       25.4177282711       11.8547259929  MEMB      48              0.0000000000
      5632        48  POPC      O32             2.8958649020       24.3938348654       11.8419585201  MEMB      48              0.0000000000
      5633        48  POPC      C32             1.5264802938       25.8910310625       10.5649899395  MEMB      48              0.0000000000
      5634        48  POPC      H2X             2.1669868704       26.5462662594        9.9367069649  MEMB      48              0.0000000000
      5635        48  POPC      H2Y             0.7175570550       26.5355335735       10.9706749165  MEMB      48              0.0000000000
      5636        48  POPC      C23             5.3261405852       29.3517766568       12.6881863619  MEMB      48              0.0000000000
      5637        48  POPC      H3R             5.9212651542       28.4362879400       12.4831785951  MEMB      48              0.0000000000
      5638        48  POPC      H3S             5.8581074362       30.3154030263       12.5373340010  MEMB      48              0.0000000000
      5639        48  POPC      C24             4.1459896925       29.1792688698       11.6852987890  MEMB      48              0.0000000000
      5640        48  POPC      H4R             3.4952190845       30.0565909656       11.8880908549  MEMB      48              0.0000000000
      5641        48  POPC      H4S             3.5266783858       28.2578639397       11.6430189956  MEMB      48              0.0000000000
      5642        48  POPC      C25             4.5066050366       29.2295560282       10.1772106883  MEMB      48              0.0000000000
      5643        48  POPC      H5R             3.5578158825       29.1682891626        9.6024345774  MEMB      48              0.0000000000
      5644        48  POPC      H5S             5.1519333342       28.3547093613        9.9480472815  MEMB      48              0.0000000000
      5645        48  POPC      C26             5.3742828110       30.4271322801        9.7255950766  MEMB      48              0.0000000000
      5646        48  POPC      H6R             6.2430885790       30.3498066675       10.4137216171  MEMB      48              0.0000000000
      5647        48  POPC      H6S             4.7569269054       31.3449970050        9.8291177202  MEMB      48              0.0000000000
      5648        48  POPC      C27             5.7484699637       30.4837387311        8.2258513705  MEMB      48              0.0000000000
      5649        48  POPC      H7R             6.1468331477       29.4990299248        7.9003109425  MEMB      48              0.0000000000
      5650        48  POPC      H7S             6.5788010772       31.2172304048        8.3086827538  MEMB      48              0.0000000000
      5651        48  POPC      C28             4.5170466601       31.0385111297        7.4085526546  MEMB      48              0.0000000000
      5652        48  POPC      H8R             4.0779156490       31.8559236180        8.0195534157  MEMB      48              0.0000000000
      5653        48  POPC      H8S             3.8239521746       30.1773233059        7.2976643716  MEMB      48              0.0000000000
      5654        48  POPC      C29             4.9615044270       31.4487746392        6.0136995617  MEMB      48              0.0000000000
      5655        48  POPC      H91             5.1475413539       32.5328714635        6.0025718776  MEMB      48              0.0000000000
      5656        48  POPC      C210            4.8588117095       30.6705570872        4.9021728558  MEMB      48              0.0000000000
      5657        48  POPC      H101            5.0947443688       31.1968486815        3.9655018449  MEMB      48              0.0000000000
      5658        48  POPC      C211            4.3142124016       29.3097925444        4.6983453887  MEMB      48              0.0000000000
      5659        48  POPC      H11R            4.6607801655       28.6336730784        5.5089459215  MEMB      48              0.0000000000
      5660        48  POPC      H11S            4.7716309007       28.8044113698        3.8210316105  MEMB      48              0.0000000000
      5661        48  POPC      C212            2.8031506741       29.1895951059        4.6230993558  MEMB      48              0.0000000000
      5662        48  POPC      H12R            2.3972227893       29.4011194111        5.6354245261  MEMB      48              0.0000000000
      5663        48  POPC      H12S            2.5874012252       28.1066992828        4.5001769127  MEMB      48              0.0000000000
      5664        48  POPC      C213            2.0913547905       29.9709787675        3.5819493000  MEMB      48              0.0000000000
      5665        48  POPC      H13R            2.5196081868       29.6117357754        2.6218111408  MEMB      48              0.0000000000
      5666        48  POPC      H13S            2.3868948574       31.0385443179        3.6672774904  MEMB      48              0.0000000000
      5667        48  POPC      C214            0.5176563826       29.9325349049        3.6283998001  MEMB      48              0.0000000000
      5668        48  POPC      H14R            0.0186025376       30.5497882072        2.8510554956  MEMB      48              0.0000000000
      5669        48  POPC      H14S            0.1928696737       30.3294454777        4.6139435544  MEMB      48              0.0000000000
      5670        48  POPC      C215            0.0346364538       28.4459832475        3.6173042550  MEMB      48              0.0000000000
      5671        48  POPC      H15R           -1.0262240983       28.3169882846        3.9210414011  MEMB      48              0.0000000000
      5672        48  POPC      H15S            0.5505610395       27.7750778857        4.3370459736  MEMB      48              0.0000000000
      5673        48  POPC      C216            0.0521506552       27.7260884006        2.2522864808  MEMB      48              0.0000000000
      5674        48  POPC      H16R           -0.3915797647       26.7236383042        2.4326146810  MEMB      48              0.0000000000
      5675        48  POPC      H16S            1.1053218302       27.6848233271        1.9009340381  MEMB      48              0.0000000000
      5676        48  POPC      C217           -0.5935153841       28.4690987524        1.0926936545  MEMB      48              0.0000000000
      5677        48  POPC      H17R           -0.1351959503       29.4792066253        1.0298726738  MEMB      48              0.0000000000
      5678        48  POPC      H17S           -1.6579145080       28.7872761314        1.0809149457  MEMB      48              0.0000000000
      5679        48  POPC      C218           -0.3246072709       27.7697495068       -0.2884552039  MEMB      48              0.0000000000
      5680        48  POPC      H18R            0.7308423310       27.9067121186       -0.6071843684  MEMB      48              0.0000000000
      5681        48  POPC      H18S           -0.9729132385       28.0903264260       -1.1318119328  MEMB      48              0.0000000000
      5682        48  POPC      H18T           -0.4374650050       26.6712405610       -0.1665446020  MEMB      48              0.0000000000
      5683        48  POPC      C33             1.0700468427       24.6432733909        9.7357664211  MEMB      48              0.0000000000
      5684        48  POPC      H3X             0.4512403352       23.8932994432       10.2732960433  MEMB      48              0.0000000000
      5685        48  POPC      H3Y             1.9392163659       24.0846593530        9.3273349044  MEMB      48              0.0000000000
      5686        48  POPC      C34             0.1125437963       25.0493026019        8.5901578292  MEMB      48              0.0000000000
      5687        48  POPC      H4X            -0.8146721909       25.5040460876        8.9997911675  MEMB      48              0.0000000000
      5688        48  POPC      H4Y            -0.0655833843       24.0607194984        8.1155046889  MEMB      48              0.0000000000
      5689        48  POPC      C35             0.7881877383       25.9093905738        7.5711451177  MEMB      48              0.0000000000
      5690        48  POPC      H5X             0.8497876213       26.9055031864        8.0592911000  MEMB      48              0.0000000000
      5691        48  POPC      H5Y             0.1929805123       26.1291879510        6.6591486711  MEMB      48              0.0000000000
      5692        48  POPC      C36             2.2427703242       25.6403504527        7.0387887785  MEMB      48              0.0000000000
      5693        48  POPC      H6X             3.0643536753       25.6210902074        7.7864182936  MEMB      48              0.0000000000
      5694        48  POPC      H6Y             2.3654565293       26.5114508927        6.3602213619  MEMB      48              0.0000000000
      5695        48  POPC      C37             2.3653711945       24.2645267658        6.3694878780  MEMB      48              0.0000000000
      5696        48  POPC      H7X             1.4241485857       24.1673011441        5.7872775425  MEMB      48              0.0000000000
      5697        48  POPC      H7Y             2.3067334345       23.4624658997        7.1360259716  MEMB      48              0.0000000000
      5698        48  POPC      C38             3.6541889704       24.0784305027        5.4991808486  MEMB      48              0.0000000000
      5699        48  POPC      H8X             3.5738309377       23.0304036897        5.1393151269  MEMB      48              0.0000000000
      5700        48  POPC      H8Y             4.5647968407       24.0742684889        6.1356534497  MEMB      48              0.0000000000
      5701        48  POPC      C39             3.8622111604       25.0843989279        4.3833751312  MEMB      48              0.0000000000
      5702        48  POPC      H9X             4.0261512600       26.0203847761        4.9590266101  MEMB      48              0.0000000000
      5703        48  POPC      H9Y             2.8898471224       25.1504642869        3.8500228087  MEMB      48              0.0000000000
      5704        48  POPC      C310            5.0529563702       24.7935919366        3.3655737719  MEMB      48              0.0000000000
      5705        48  POPC      H10X            4.8467898389       23.8032044537        2.9062819917  MEMB      48              0.0000000000
      5706        48  POPC      H10Y            5.9865761231       24.6502632368        3.9504949035  MEMB      48              0.0000000000
      5707        48  POPC      C311            5.2543800854       26.0173798578        2.5017788857  MEMB      48              0.0000000000
      5708        48  POPC      H11X            6.0942207076       25.7778305271        1.8150436224  MEMB      48              0.0000000000
      5709        48  POPC      H11Y            5.4638960240       26.9230237853        3.1102467075  MEMB      48              0.0000000000
      5710        48  POPC      C312            4.0451353629       26.4729013508        1.5686925996  MEMB      48              0.0000000000
      5711        48  POPC      H12X            3.0178003019       26.4943420861        1.9911186529  MEMB      48              0.0000000000
      5712        48  POPC      H12Y            4.0902017326       25.6610824006        0.8115669020  MEMB      48              0.0000000000
      5713        48  POPC      C313            4.1675707786       27.9123630760        0.9811216326  MEMB      48              0.0000000000
      5714        48  POPC      H13X            4.2310039445       28.6645518056        1.7962955516  MEMB      48              0.0000000000
      5715        48  POPC      H13Y            3.2711528903       28.1529287422        0.3704796362  MEMB      48              0.0000000000
      5716        48  POPC      C314            5.4153212756       27.9886838782        0.1115315256  MEMB      48              0.0000000000
      5717        48  POPC      H14X            5.1858721258       27.3038349535       -0.7326588802  MEMB      48              0.0000000000
      5718        48  POPC      H14Y            6.1821006990       27.5910116127        0.8102640514  MEMB      48              0.0000000000
      5719        48  POPC      C315            5.7762830263       29.3596490301       -0.4897198809  MEMB      48              0.0000000000
      5720        48  POPC      H15X            6.6632510076       29.1120519919       -1.1112541348  MEMB      48              0.0000000000
      5721        48  POPC      H15Y            6.0812367746       30.0085580368        0.3589498914  MEMB      48              0.0000000000
      5722        48  POPC      C316            4.7305082664       30.0311367815       -1.3475697634  MEMB      48              0.0000000000
      5723        48  POPC      H16X            4.2699912547       29.2172449065       -1.9474256529  MEMB      48              0.0000000000
      5724        48  POPC      H16Y            5.2082781103       30.7781653603       -2.0169017736  MEMB      48              0.0000000000
      5725        48  POPC      H16Z            4.0352842010       30.5015881488       -0.6197926635  MEMB      48              0.0000000000
      5726        49  SAPS      N              14.4800540012       22.6347457414       21.1419868581  MEMB      49              0.0000000000
      5727        49  SAPS      HN1            14.8607998593       22.8872154807       22.0762736617  MEMB      49              0.0000000000
      5728        49  SAPS      HN2            13.4868657794       22.8707698834       20.9433166252  MEMB      49              0.0000000000
      5729        49  SAPS      HN3            14.7645069237       21.6526315516       20.9518865858  MEMB      49              0.0000000000
      5730        49  SAPS      C12            15.2307363582       23.6112968610       20.2559496158  MEMB      49              0.0000000000
      5731        49  SAPS      H12A           14.9285317149       23.3786061591       19.2455400986  MEMB      49              0.0000000000
      5732        49  SAPS      C13            14.9261215989       25.1157314111       20.6567240132  MEMB      49              0.0000000000
      5733        49  SAPS      O13A           14.1631216153       25.3571171958       21.6088864271  MEMB      49              0.0000000000
      5734        49  SAPS      O13B           15.4755850816       25.8993428986       19.8234086825  MEMB      49              0.0000000000
      5735        49  SAPS      C11            16.7722501114       23.4276905939       20.4173649804  MEMB      49              0.0000000000
      5736        49  SAPS      H11A           16.9268601028       22.3278564029       20.3894116809  MEMB      49              0.0000000000
      5737        49  SAPS      H11B           17.1234539242       23.5922469085       21.4584692454  MEMB      49              0.0000000000
      5738        49  SAPS      P              19.0644862214       23.7215752355       19.2548951943  MEMB      49              0.0000000000
      5739        49  SAPS      O13            19.8198798050       24.7387253148       18.5053139032  MEMB      49              0.0000000000
      5740        49  SAPS      O14            19.5316546433       23.2954785355       20.5969377351  MEMB      49              0.0000000000
      5741        49  SAPS      O12            17.5291430356       24.1310763999       19.3936491660  MEMB      49              0.0000000000
      5742        49  SAPS      O11            19.0191290178       22.4230291360       18.3448834365  MEMB      49              0.0000000000
      5743        49  SAPS      C1             18.0211856570       22.4427037808       17.2966847739  MEMB      49              0.0000000000
      5744        49  SAPS      HA             16.9784013708       22.4017417990       17.6777938474  MEMB      49              0.0000000000
      5745        49  SAPS      HB             18.1731657761       23.3969437310       16.7483699615  MEMB      49              0.0000000000
      5746        49  SAPS      C2             18.1864953294       21.3136048473       16.2623218348  MEMB      49              0.0000000000
      5747        49  SAPS      HS             17.8583786674       20.4243443332       16.8418703083  MEMB      49              0.0000000000
      5748        49  SAPS      O21            19.5441513847       21.3583794478       15.9368705825  MEMB      49              0.0000000000
      5749        49  SAPS      C21            20.1053563537       20.2965263200       15.3259451211  MEMB      49              0.0000000000
      5750        49  SAPS      O22            19.4520379752       19.2605889273       15.1429623714  MEMB      49              0.0000000000
      5751        49  SAPS      C22            21.5698571111       20.4973263498       14.8674837617  MEMB      49              0.0000000000
      5752        49  SAPS      H2R            21.9115783518       21.5076144391       15.1787162295  MEMB      49              0.0000000000
      5753        49  SAPS      H2S            22.2135698060       19.7006290250       15.2978647679  MEMB      49              0.0000000000
      5754        49  SAPS      C3             17.1990616196       21.5719317542       15.0479600269  MEMB      49              0.0000000000
      5755        49  SAPS      HX             16.1942406736       21.8074903605       15.4592603726  MEMB      49              0.0000000000
      5756        49  SAPS      HY             17.2801956245       20.6638845669       14.4129886832  MEMB      49              0.0000000000
      5757        49  SAPS      O31            17.7696656465       22.5916516832       14.2154035977  MEMB      49              0.0000000000
      5758        49  SAPS      C31            16.7886969989       23.1506557894       13.4063225842  MEMB      49              0.0000000000
      5759        49  SAPS      O32            15.6503554445       22.6917628970       13.4348671093  MEMB      49              0.0000000000
      5760        49  SAPS      C32            17.3486162123       24.2254469499       12.4679186331  MEMB      49              0.0000000000
      5761        49  SAPS      H2X            18.2026140537       23.7586154799       11.9321225569  MEMB      49              0.0000000000
      5762        49  SAPS      H2Y            17.6764817277       25.1136445650       13.0492359914  MEMB      49              0.0000000000
      5763        49  SAPS      C23            21.6480144395       20.5115897845       13.3738095125  MEMB      49              0.0000000000
      5764        49  SAPS      H3R            21.0456966238       19.6743479107       12.9608194043  MEMB      49              0.0000000000
      5765        49  SAPS      H3S            22.7262423353       20.3040637576       13.2044620711  MEMB      49              0.0000000000
      5766        49  SAPS      C24            21.1846122743       21.8196238758       12.8232376656  MEMB      49              0.0000000000
      5767        49  SAPS      H4R            21.8549729413       22.6366861318       13.1657966585  MEMB      49              0.0000000000
      5768        49  SAPS      H4S            20.1333313030       22.0505655834       13.0985468569  MEMB      49              0.0000000000
      5769        49  SAPS      C25            21.2223346886       21.8337866189       11.3173889998  MEMB      49              0.0000000000
      5770        49  SAPS      H5R            22.1721032057       22.2537217974       10.9546299382  MEMB      49              0.0000000000
      5771        49  SAPS      C26            20.3401935987       21.4179946939       10.4001929581  MEMB      49              0.0000000000
      5772        49  SAPS      H6R            20.5221183887       21.6330518702        9.3368710405  MEMB      49              0.0000000000
      5773        49  SAPS      C27            19.0176136685       20.7844427872       10.7810365083  MEMB      49              0.0000000000
      5774        49  SAPS      H7R            18.7850544985       20.8857749810       11.8626870993  MEMB      49              0.0000000000
      5775        49  SAPS      H7S            19.0476173013       19.7085963212       10.5053998540  MEMB      49              0.0000000000
      5776        49  SAPS      C28            17.8332352701       21.3889335175       10.0385596375  MEMB      49              0.0000000000
      5777        49  SAPS      H8R            17.5012850027       22.3346985449       10.4917017733  MEMB      49              0.0000000000
      5778        49  SAPS      C29            17.1496887536       20.9190542621        8.9707404073  MEMB      49              0.0000000000
      5779        49  SAPS      H9R            16.2705289180       21.5283821506        8.7142296184  MEMB      49              0.0000000000
      5780        49  SAPS      C210           17.4579625737       19.6443310997        8.1446647707  MEMB      49              0.0000000000
      5781        49  SAPS      H10R           16.7434659299       19.7297988683        7.2981953461  MEMB      49              0.0000000000
      5782        49  SAPS      H10S           17.1878956166       18.6531115019        8.5675936981  MEMB      49              0.0000000000
      5783        49  SAPS      C211           18.7835977168       19.3281386586        7.5091001468  MEMB      49              0.0000000000
      5784        49  SAPS      H11R           19.3573819970       18.8581060177        8.3214058933  MEMB      49              0.0000000000
      5785        49  SAPS      C212           19.1117284651       19.4824910905        6.2215233254  MEMB      49              0.0000000000
      5786        49  SAPS      H12R           20.0910559374       19.1346693301        5.8610553787  MEMB      49              0.0000000000
      5787        49  SAPS      C213           18.2365115792       20.0514816604        5.0253400999  MEMB      49              0.0000000000
      5788        49  SAPS      H13R           18.0702458331       21.1275185293        5.2462963293  MEMB      49              0.0000000000
      5789        49  SAPS      H13S           17.2530276186       19.5355474865        5.0552068572  MEMB      49              0.0000000000
      5790        49  SAPS      C214           18.9070765188       19.7029582331        3.6840362182  MEMB      49              0.0000000000
      5791        49  SAPS      H14R           18.4685079261       18.8146535747        3.2059424988  MEMB      49              0.0000000000
      5792        49  SAPS      C215           20.0009945233       20.3299377688        3.1630215793  MEMB      49              0.0000000000
      5793        49  SAPS      H15R           20.3403855099       20.0851335588        2.1457283042  MEMB      49              0.0000000000
      5794        49  SAPS      C216           20.6604162699       21.4759961703        3.9012863220  MEMB      49              0.0000000000
      5795        49  SAPS      H16R           21.7201654398       21.3169418846        4.1944656342  MEMB      49              0.0000000000
      5796        49  SAPS      H16S           20.1809307278       21.8060004711        4.8476009485  MEMB      49              0.0000000000
      5797        49  SAPS      C217           20.6114575163       22.6766619829        2.9548472217  MEMB      49              0.0000000000
      5798        49  SAPS      H17R           19.6703352760       23.2623352505        2.8800362134  MEMB      49              0.0000000000
      5799        49  SAPS      H17S           20.9568468693       22.3309964606        1.9570772185  MEMB      49              0.0000000000
      5800        49  SAPS      C218           21.5723088045       23.7880418517        3.3939815468  MEMB      49              0.0000000000
      5801        49  SAPS      H18R           22.6128984759       23.3992022852        3.3767128617  MEMB      49              0.0000000000
      5802        49  SAPS      H18S           21.2910143690       24.1404889229        4.4093513709  MEMB      49              0.0000000000
      5803        49  SAPS      C219           21.4978730391       25.1380179722        2.5618051340  MEMB      49              0.0000000000
      5804        49  SAPS      H19R           21.5516341180       24.7271280394        1.5309788871  MEMB      49              0.0000000000
      5805        49  SAPS      H19S           22.4186380558       25.7076297471        2.8109127249  MEMB      49              0.0000000000
      5806        49  SAPS      C220           20.2425105457       25.9561288079        2.7821963249  MEMB      49              0.0000000000
      5807        49  SAPS      H20R           20.2587492025       26.8575479209        2.1329660541  MEMB      49              0.0000000000
      5808        49  SAPS      H20S           19.9798435041       26.1854188452        3.8370675761  MEMB      49              0.0000000000
      5809        49  SAPS      H20T           19.3538850981       25.4302034845        2.3722353051  MEMB      49              0.0000000000
      5810        49  SAPS      C33            16.2652642142       24.8436585078       11.5649058516  MEMB      49              0.0000000000
      5811        49  SAPS      H3X            15.4834056079       25.2377097584       12.2488220557  MEMB      49              0.0000000000
      5812        49  SAPS      H3Y            15.8353178226       23.9735232185       11.0242280614  MEMB      49              0.0000000000
      5813        49  SAPS      C34            16.7785808705       25.8376683539       10.4438934519  MEMB      49              0.0000000000
      5814        49  SAPS      H4X            17.4698408981       26.5602392953       10.9280129078  MEMB      49              0.0000000000
      5815        49  SAPS      H4Y            15.8602653258       26.2797429819       10.0016406969  MEMB      49              0.0000000000
      5816        49  SAPS      C35            17.5268174350       25.2046896800        9.3080239824  MEMB      49              0.0000000000
      5817        49  SAPS      H5X            17.0483904748       24.2217904314        9.1096875455  MEMB      49              0.0000000000
      5818        49  SAPS      H5Y            18.5408918144       24.8813761813        9.6265248909  MEMB      49              0.0000000000
      5819        49  SAPS      C36            17.6113764979       26.1370733706        7.9986208146  MEMB      49              0.0000000000
      5820        49  SAPS      H6X            18.1857604670       27.0089859047        8.3783217146  MEMB      49              0.0000000000
      5821        49  SAPS      H6Y            16.5779374945       26.4418984297        7.7276843958  MEMB      49              0.0000000000
      5822        49  SAPS      C37            18.3983855096       25.6146089355        6.7656818103  MEMB      49              0.0000000000
      5823        49  SAPS      H7X            19.4541287891       25.5659475335        7.1082588526  MEMB      49              0.0000000000
      5824        49  SAPS      H7Y            18.4039069956       26.3219662677        5.9089802351  MEMB      49              0.0000000000
      5825        49  SAPS      C38            17.7991556513       24.2360216030        6.1828486119  MEMB      49              0.0000000000
      5826        49  SAPS      H8X            18.0119769799       23.4815906890        6.9701612938  MEMB      49              0.0000000000
      5827        49  SAPS      H8Y            18.4123115139       23.8729239905        5.3304859752  MEMB      49              0.0000000000
      5828        49  SAPS      C39            16.2695301053       24.1783447317        5.8229628350  MEMB      49              0.0000000000
      5829        49  SAPS      H9X            15.7145188768       24.3314308791        6.7731459967  MEMB      49              0.0000000000
      5830        49  SAPS      H9Y            15.9769245404       23.1408782380        5.5539529101  MEMB      49              0.0000000000
      5831        49  SAPS      C310           15.8672378909       25.2293426069        4.8651304352  MEMB      49              0.0000000000
      5832        49  SAPS      H10X           16.2687928323       26.1876009219        5.2585969385  MEMB      49              0.0000000000
      5833        49  SAPS      H10Y           14.7642965089       25.2970454259        4.7499886095  MEMB      49              0.0000000000
      5834        49  SAPS      C311           16.5194033451       25.0914763026        3.4741984602  MEMB      49              0.0000000000
      5835        49  SAPS      H11X           17.5904225862       25.3605129056        3.5960921582  MEMB      49              0.0000000000
      5836        49  SAPS      H11Y           15.9232025184       25.8245107313        2.8897959373  MEMB      49              0.0000000000
      5837        49  SAPS      C312           16.2267312420       23.7569682518        2.7468441744  MEMB      49              0.0000000000
      5838        49  SAPS      H12X           15.2284638151       23.4030952839        3.0823395197  MEMB      49              0.0000000000
      5839        49  SAPS      H12Y           17.0379519276       23.0899034213        3.1091517074  MEMB      49              0.0000000000
      5840        49  SAPS      C313           16.2198513598       23.7314249285        1.2004500558  MEMB      49              0.0000000000
      5841        49  SAPS      H13X           17.2611235704       23.9908447033        0.9127454478  MEMB      49              0.0000000000
      5842        49  SAPS      H13Y           15.4299804953       24.4351111633        0.8609634372  MEMB      49              0.0000000000
      5843        49  SAPS      C314           15.8056161173       22.3961510613        0.4784707907  MEMB      49              0.0000000000
      5844        49  SAPS      H14X           15.8789832878       22.5822316569       -0.6143746503  MEMB      49              0.0000000000
      5845        49  SAPS      H14Y           14.7498808145       22.0998138373        0.6571545685  MEMB      49              0.0000000000
      5846        49  SAPS      C315           16.8518889512       21.2788197330        0.8387179094  MEMB      49              0.0000000000
      5847        49  SAPS      H15X           16.6443820519       21.0366202509        1.9029552455  MEMB      49              0.0000000000
      5848        49  SAPS      H15Y           17.8119336507       21.7959235561        0.6260223079  MEMB      49              0.0000000000
      5849        49  SAPS      C316           16.6294964605       20.0472708722        0.0446602037  MEMB      49              0.0000000000
      5850        49  SAPS      H16X           15.5420181825       19.8225806214        0.0796793920  MEMB      49              0.0000000000
      5851        49  SAPS      H16Y           16.9946109706       19.2042390130        0.6694090874  MEMB      49              0.0000000000
      5852        49  SAPS      C317           17.1785237522       19.8819959031       -1.3428023058  MEMB      49              0.0000000000
      5853        49  SAPS      H17X           16.7512632164       20.6456268612       -2.0273729272  MEMB      49              0.0000000000
      5854        49  SAPS      H17Y           16.9408942264       18.8806876124       -1.7614145515  MEMB      49              0.0000000000
      5855        49  SAPS      C318           18.7229948233       20.0077398065       -1.1693746697  MEMB      49              0.0000000000
      5856        49  SAPS      H18X           19.1958965239       19.7079321212       -2.1289579908  MEMB      49              0.0000000000
      5857        49  SAPS      H18Y           19.0047345476       19.3467910086       -0.3219732622  MEMB      49              0.0000000000
      5858        49  SAPS      H18Z           19.0998906214       21.0345891325       -0.9748210417  MEMB      49              0.0000000000
      5859        50  OSM       N             -24.3908387596       17.0895667835       21.8984087701  MEMB      50              0.0000000000
      5860        50  OSM       C15           -23.7170668341       16.7008499255       23.1986306970  MEMB      50              0.0000000000
      5861        50  OSM       H15A          -22.9954488175       17.4617778807       23.4568090214  MEMB      50              0.0000000000
      5862        50  OSM       H15B          -23.2372490141       15.7335463126       23.2209569485  MEMB      50              0.0000000000
      5863        50  OSM       H15C          -24.4708727334       16.6753489148       23.9716288622  MEMB      50              0.0000000000
      5864        50  OSM       C14           -25.3951242521       15.9381156351       21.6766311796  MEMB      50              0.0000000000
      5865        50  OSM       H14A          -26.1661767002       15.9748771427       22.4319631499  MEMB      50              0.0000000000
      5866        50  OSM       H14B          -24.9339662743       14.9625303865       21.7209806158  MEMB      50              0.0000000000
      5867        50  OSM       H14C          -25.8356831233       16.0329393333       20.6951442968  MEMB      50              0.0000000000
      5868        50  OSM       C13           -25.1537756933       18.3843729609       21.9951640867  MEMB      50              0.0000000000
      5869        50  OSM       H13A          -25.9412205216       18.3033552459       22.7298524241  MEMB      50              0.0000000000
      5870        50  OSM       H13B          -25.6478818868       18.6138298441       21.0626359542  MEMB      50              0.0000000000
      5871        50  OSM       H13C          -24.6493850405       19.2794971243       22.3279441645  MEMB      50              0.0000000000
      5872        50  OSM       C12           -23.3791154005       17.0199873187       20.7312060249  MEMB      50              0.0000000000
      5873        50  OSM       H12A          -23.9495060618       17.3255139807       19.8665048886  MEMB      50              0.0000000000
      5874        50  OSM       H12B          -22.9866761759       16.0139427625       20.7149101092  MEMB      50              0.0000000000
      5875        50  OSM       C11           -22.0812104851       17.8602949922       20.8986949911  MEMB      50              0.0000000000
      5876        50  OSM       H11A          -21.4043311529       17.5659764895       20.0683143826  MEMB      50              0.0000000000
      5877        50  OSM       H11B          -21.5944841920       17.5908759850       21.8603767297  MEMB      50              0.0000000000
      5878        50  OSM       P             -21.5506948963       20.3230436611       20.1785355491  MEMB      50              0.0000000000
      5879        50  OSM       O13           -21.5904530639       21.6514166530       20.8286038772  MEMB      50              0.0000000000
      5880        50  OSM       O14           -20.1126096854       19.8033186368       19.9238037452  MEMB      50              0.0000000000
      5881        50  OSM       O11           -22.2827368638       20.4175973703       18.7155818125  MEMB      50              0.0000000000
      5882        50  OSM       O12           -22.3766613233       19.2472115560       20.9547392713  MEMB      50              0.0000000000
      5883        50  OSM       C1S           -23.5600080750       20.9785600635       18.7606423478  MEMB      50              0.0000000000
      5884        50  OSM       H1S           -23.4124936951       22.0468060712       19.0278710398  MEMB      50              0.0000000000
      5885        50  OSM       H1T           -24.2442984015       20.4348284962       19.4465168203  MEMB      50              0.0000000000
      5886        50  OSM       NF            -24.5518906384       19.5288708499       17.0323730930  MEMB      50              0.0000000000
      5887        50  OSM       HNF           -23.8754773278       19.1091764647       16.4320975269  MEMB      50              0.0000000000
      5888        50  OSM       C2S           -24.1243828986       20.9256319108       17.3016903718  MEMB      50              0.0000000000
      5889        50  OSM       H2S           -24.9841384176       21.6266233147       17.2404347866  MEMB      50              0.0000000000
      5890        50  OSM       C3S           -23.0025060589       21.3238185369       16.2663467589  MEMB      50              0.0000000000
      5891        50  OSM       H3S           -22.2582290169       20.4989775033       16.2632121139  MEMB      50              0.0000000000
      5892        50  OSM       O3            -22.3778771634       22.4917409156       16.7796238662  MEMB      50              0.0000000000
      5893        50  OSM       HO3           -22.8385977546       22.7111123762       17.5927737035  MEMB      50              0.0000000000
      5894        50  OSM       C4S           -23.6765009787       21.3994514355       14.9425344199  MEMB      50              0.0000000000
      5895        50  OSM       H4S           -24.0615299289       20.4817909037       14.4738640122  MEMB      50              0.0000000000
      5896        50  OSM       C5S           -24.0192353055       22.4720342961       14.2547023481  MEMB      50              0.0000000000
      5897        50  OSM       H5S           -23.7914699524       23.4705603812       14.6560363154  MEMB      50              0.0000000000
      5898        50  OSM       C6S           -24.6964613844       22.5456101747       12.9669633346  MEMB      50              0.0000000000
      5899        50  OSM       H6S           -24.2816135204       23.4904009202       12.5551480529  MEMB      50              0.0000000000
      5900        50  OSM       H6T           -25.7648300937       22.7699576219       13.1733064411  MEMB      50              0.0000000000
      5901        50  OSM       C7S           -24.6315199447       21.4302886273       11.9377076484  MEMB      50              0.0000000000
      5902        50  OSM       H7S           -25.2417325602       20.6182999908       12.3878589682  MEMB      50              0.0000000000
      5903        50  OSM       H7T           -23.6144155984       21.0172724471       11.7667179817  MEMB      50              0.0000000000
      5904        50  OSM       C8S           -25.4088710926       21.6454272414       10.6307739636  MEMB      50              0.0000000000
      5905        50  OSM       H8S           -25.0417323405       22.5697177440       10.1355796503  MEMB      50              0.0000000000
      5906        50  OSM       H8T           -26.4879280638       21.7377018171       10.8786503457  MEMB      50              0.0000000000
      5907        50  OSM       C9S           -25.1667921403       20.5042692056        9.6432287109  MEMB      50              0.0000000000
      5908        50  OSM       H9S           -25.8077462805       20.6136202236        8.7423720721  MEMB      50              0.0000000000
      5909        50  OSM       H9T           -25.4450691151       19.5100254598       10.0535482577  MEMB      50              0.0000000000
      5910        50  OSM       C10S          -23.7044999187       20.3355364135        9.0944867157  MEMB      50              0.0000000000
      5911        50  OSM       H10S          -23.7117480371       19.5055575070        8.3559716105  MEMB      50              0.0000000000
      5912        50  OSM       H10T          -22.9693268161       19.9930104836        9.8537739028  MEMB      50              0.0000000000
      5913        50  OSM       C11S          -23.1505508327       21.5080599135        8.3690119708  MEMB      50              0.0000000000
      5914        50  OSM       H11S          -22.8206088656       22.2286082499        9.1476452209  MEMB      50              0.0000000000
      5915        50  OSM       H11T          -23.9004001187       21.9165596445        7.6582558312  MEMB      50              0.0000000000
      5916        50  OSM       C12S          -21.9033834356       21.1369747846        7.5151258285  MEMB      50              0.0000000000
      5917        50  OSM       H12S          -21.2188928459       20.6531252269        8.2442920752  MEMB      50              0.0000000000
      5918        50  OSM       H12T          -21.3803159083       22.0198885966        7.0894686482  MEMB      50              0.0000000000
      5919        50  OSM       C13S          -22.1520073440       19.9979835325        6.4788736678  MEMB      50              0.0000000000
      5920        50  OSM       H13S          -23.1466962965       20.2689935660        6.0647867282  MEMB      50              0.0000000000
      5921        50  OSM       H13T          -22.0634077245       18.9891512026        6.9357415599  MEMB      50              0.0000000000
      5922        50  OSM       C14S          -21.2183476393       19.9637957644        5.2074388894  MEMB      50              0.0000000000
      5923        50  OSM       H14S          -21.3948620144       18.9429545294        4.8061326452  MEMB      50              0.0000000000
      5924        50  OSM       H14T          -20.1619735093       20.1215535693        5.5132280528  MEMB      50              0.0000000000
      5925        50  OSM       C15S          -21.5721001790       21.0425651318        4.0853344283  MEMB      50              0.0000000000
      5926        50  OSM       H15S          -21.2555708227       22.0639651473        4.3867847711  MEMB      50              0.0000000000
      5927        50  OSM       H15T          -22.6793262710       20.9568222869        4.0534103214  MEMB      50              0.0000000000
      5928        50  OSM       C16S          -21.0598635399       20.6267949475        2.6528186455  MEMB      50              0.0000000000
      5929        50  OSM       H16S          -21.7122453847       19.7667715860        2.3899914479  MEMB      50              0.0000000000
      5930        50  OSM       H16T          -20.0016284979       20.2892501960        2.6756898967  MEMB      50              0.0000000000
      5931        50  OSM       C17S          -21.3658113141       21.7168244442        1.6952080500  MEMB      50              0.0000000000
      5932        50  OSM       H17S          -20.9870622178       21.1638562782        0.8091514091  MEMB      50              0.0000000000
      5933        50  OSM       H17T          -20.9522131694       22.7182364513        1.9410362200  MEMB      50              0.0000000000
      5934        50  OSM       C18S          -22.8646299167       21.9507253358        1.5204334747  MEMB      50              0.0000000000
      5935        50  OSM       H18S          -23.2640296628       20.9283347512        1.3486244521  MEMB      50              0.0000000000
      5936        50  OSM       H18T          -22.9824197150       22.7702132870        0.7795639900  MEMB      50              0.0000000000
      5937        50  OSM       H18U          -23.3835598754       22.3511279445        2.4174900752  MEMB      50              0.0000000000
      5938        50  OSM       C1F           -25.5943734519       18.9231588008       17.5851348152  MEMB      50              0.0000000000
      5939        50  OSM       OF            -26.2254656537       19.4350644990       18.4780296844  MEMB      50              0.0000000000
      5940        50  OSM       C2F           -25.8715285409       17.5445261618       17.1620050425  MEMB      50              0.0000000000
      5941        50  OSM       H2F           -26.3378595304       16.9768819663       17.9954536289  MEMB      50              0.0000000000
      5942        50  OSM       H2G           -24.8843914723       17.1303801783       16.8647434670  MEMB      50              0.0000000000
      5943        50  OSM       C3F           -26.8736732160       17.5650845273       15.9575214858  MEMB      50              0.0000000000
      5944        50  OSM       H3F           -27.7147747763       18.2271714398       16.2550276205  MEMB      50              0.0000000000
      5945        50  OSM       H3G           -27.3659224397       16.5920988151       15.7446591367  MEMB      50              0.0000000000
      5946        50  OSM       C4F           -26.2931793242       18.1408088411       14.6233358930  MEMB      50              0.0000000000
      5947        50  OSM       H4F           -26.0243220465       19.2092995431       14.7660403631  MEMB      50              0.0000000000
      5948        50  OSM       H4G           -27.1099713416       18.2893106776       13.8850139152  MEMB      50              0.0000000000
      5949        50  OSM       C5F           -25.0476952469       17.4710579908       13.9732446629  MEMB      50              0.0000000000
      5950        50  OSM       H5F           -25.2635127008       16.3881277605       13.8507462470  MEMB      50              0.0000000000
      5951        50  OSM       H5G           -24.1437282501       17.3555942207       14.6087230065  MEMB      50              0.0000000000
      5952        50  OSM       C6F           -24.5871068146       17.8877199123       12.5973476457  MEMB      50              0.0000000000
      5953        50  OSM       H6F           -24.0352585902       18.8517815494       12.6165770723  MEMB      50              0.0000000000
      5954        50  OSM       H6G           -25.5353477576       18.1306063145       12.0718329450  MEMB      50              0.0000000000
      5955        50  OSM       C7F           -23.8491188336       16.7976190208       11.8240801109  MEMB      50              0.0000000000
      5956        50  OSM       H7F           -24.5151748669       15.9095903775       11.7783030791  MEMB      50              0.0000000000
      5957        50  OSM       H7G           -23.0728083500       16.3748372212       12.4970724065  MEMB      50              0.0000000000
      5958        50  OSM       C8F           -23.1548791687       17.2063524103       10.5266239224  MEMB      50              0.0000000000
      5959        50  OSM       H8F           -22.4645676314       18.0471769887       10.7520232682  MEMB      50              0.0000000000
      5960        50  OSM       H8G           -23.9581203993       17.5770826340        9.8545501607  MEMB      50              0.0000000000
      5961        50  OSM       C9F           -22.3408130753       16.0755007486        9.9307897371  MEMB      50              0.0000000000
      5962        50  OSM       H9F           -21.2669222601       16.2277125194       10.1140662686  MEMB      50              0.0000000000
      5963        50  OSM       C10F          -22.8621343948       15.0669210740        9.1532704606  MEMB      50              0.0000000000
      5964        50  OSM       H10F          -22.2497258457       14.2686890667        8.7085445550  MEMB      50              0.0000000000
      5965        50  OSM       C11F          -24.3558538701       15.0541751738        8.7761151680  MEMB      50              0.0000000000
      5966        50  OSM       H11F          -25.0156369115       15.5511889575        9.5190722103  MEMB      50              0.0000000000
      5967        50  OSM       H11G          -24.7340651095       14.0116306914        8.7099510141  MEMB      50              0.0000000000
      5968        50  OSM       C12F          -24.5081023396       15.7721027198        7.4029252325  MEMB      50              0.0000000000
      5969        50  OSM       H12F          -24.2733993759       16.8457383859        7.5658421090  MEMB      50              0.0000000000
      5970        50  OSM       H12G          -25.5989312773       15.6670334015        7.2202408790  MEMB      50              0.0000000000
      5971        50  OSM       C13F          -23.7660968359       15.1160230818        6.1971279708  MEMB      50              0.0000000000
      5972        50  OSM       H13F          -24.0098143294       14.0325328106        6.1659528346  MEMB      50              0.0000000000
      5973        50  OSM       H13G          -22.6749414916       15.1982121545        6.3893405309  MEMB      50              0.0000000000
      5974        50  OSM       C14F          -24.0853095383       15.7773863863        4.8433886830  MEMB      50              0.0000000000
      5975        50  OSM       H14F          -25.1835220349       15.9407181394        4.8037309845  MEMB      50              0.0000000000
      5976        50  OSM       H14G          -23.8337526404       15.2102099418        3.9217867918  MEMB      50              0.0000000000
      5977        50  OSM       C15F          -23.6171496850       17.1930494124        4.6451546426  MEMB      50              0.0000000000
      5978        50  OSM       H15F          -22.6192350375       17.2828219647        5.1251840022  MEMB      50              0.0000000000
      5979        50  OSM       H15G          -24.2485973117       17.8676945948        5.2619599152  MEMB      50              0.0000000000
      5980        50  OSM       C16F          -23.5634256350       17.5772633683        3.1559280670  MEMB      50              0.0000000000
      5981        50  OSM       H16F          -22.6150442134       17.1347633293        2.7829841009  MEMB      50              0.0000000000
      5982        50  OSM       H16G          -23.5429378361       18.6877297901        3.1282549809  MEMB      50              0.0000000000
      5983        50  OSM       C17F          -24.8613437744       17.2465873666        2.2988859829  MEMB      50              0.0000000000
      5984        50  OSM       H17F          -25.0720617955       16.1574275789        2.3592985540  MEMB      50              0.0000000000
      5985        50  OSM       H17G          -24.5436293800       17.5039520227        1.2658596670  MEMB      50              0.0000000000
      5986        50  OSM       C18F          -26.2120884339       17.9926129532        2.5041551923  MEMB      50              0.0000000000
      5987        50  OSM       H18F          -27.0304604488       17.7763602018        1.7845564695  MEMB      50              0.0000000000
      5988        50  OSM       H18G          -25.9939382210       19.0813288073        2.4663514454  MEMB      50              0.0000000000
      5989        50  OSM       H18H          -26.6192362436       17.6903950577        3.4926975527  MEMB      50              0.0000000000
      5990        51  CHL1      C3            -28.1874622845       -7.7946114154       17.4014200000  MEMB      51              0.0000000000
      5991        51  CHL1      H3            -27.2458764598       -7.2114379658       17.4888400000  MEMB      51              0.0000000000
      5992        51  CHL1      O3            -28.9219701155       -7.6271082046       18.5985800000  MEMB      51              0.0000000000
      5993        51  CHL1      H3'           -29.5406815688       -8.3609983527       18.6128400000  MEMB      51              0.0000000000
      5994        51  CHL1      C4            -29.0021024716       -7.2412941224       16.2104500000  MEMB      51              0.0000000000
      5995        51  CHL1      H4A           -30.0741101590       -7.5279406946       16.1561600000  MEMB      51              0.0000000000
      5996        51  CHL1      H4B           -29.0632620696       -6.1543626075       16.4322200000  MEMB      51              0.0000000000
      5997        51  CHL1      C5            -28.3563788994       -7.5010870455       14.8749700000  MEMB      51              0.0000000000
      5998        51  CHL1      C6            -28.1506287037       -6.5030092219       13.9866200000  MEMB      51              0.0000000000
      5999        51  CHL1      H6            -28.3985592452       -5.4846935914       14.3206500000  MEMB      51              0.0000000000
      6000        51  CHL1      C7            -27.6250506067       -6.6977054900       12.5390900000  MEMB      51              0.0000000000
      6001        51  CHL1      H7A           -28.1567468053       -5.9741288504       11.8848300000  MEMB      51              0.0000000000
      6002        51  CHL1      H7B           -26.5541598616       -6.4096324046       12.6065100000  MEMB      51              0.0000000000
      6003        51  CHL1      C8            -27.6964440432       -8.1905276675       12.1465500000  MEMB      51              0.0000000000
      6004        51  CHL1      H8            -28.6907869669       -8.6532115453       11.9690200000  MEMB      51              0.0000000000
      6005        51  CHL1      C14           -26.8513958682       -8.4171241378       10.9056400000  MEMB      51              0.0000000000
      6006        51  CHL1      H14           -25.8084438790       -8.1030033287       11.1245200000  MEMB      51              0.0000000000
      6007        51  CHL1      C15           -27.3231070666       -7.7027619357        9.6593700000  MEMB      51              0.0000000000
      6008        51  CHL1      H15A          -28.4320805577       -7.7544170408        9.6166300000  MEMB      51              0.0000000000
      6009        51  CHL1      H15B          -26.9954893321       -6.6426302822        9.7151800000  MEMB      51              0.0000000000
      6010        51  CHL1      C16           -26.7850851533       -8.4853422644        8.5157700000  MEMB      51              0.0000000000
      6011        51  CHL1      H16A          -27.6299707671       -8.6739292824        7.8193900000  MEMB      51              0.0000000000
      6012        51  CHL1      H16B          -25.9342864543       -7.8958304088        8.1121000000  MEMB      51              0.0000000000
      6013        51  CHL1      C17           -26.2171425682       -9.7917931987        9.0397500000  MEMB      51              0.0000000000
      6014        51  CHL1      H17           -25.1185421287       -9.6353459335        9.0939200000  MEMB      51              0.0000000000
      6015        51  CHL1      C13           -26.7630782483       -9.8822345264       10.4671000000  MEMB      51              0.0000000000
      6016        51  CHL1      C18           -28.1724585032      -10.4725249670       10.3111500000  MEMB      51              0.0000000000
      6017        51  CHL1      H18A          -28.2240419700      -11.5158641037        9.9328700000  MEMB      51              0.0000000000
      6018        51  CHL1      H18B          -28.7070365455      -10.5382080058       11.2828600000  MEMB      51              0.0000000000
      6019        51  CHL1      H18C          -28.7566928549       -9.8448858095        9.6047100000  MEMB      51              0.0000000000
      6020        51  CHL1      C12           -25.8938893256      -10.5381597095       11.5442400000  MEMB      51              0.0000000000
      6021        51  CHL1      H12A          -25.5313206085      -11.5110476315       11.1488400000  MEMB      51              0.0000000000
      6022        51  CHL1      H12B          -24.9349819861       -9.9776786315       11.5703700000  MEMB      51              0.0000000000
      6023        51  CHL1      C11           -26.6195498963      -10.4951113025       12.8317400000  MEMB      51              0.0000000000
      6024        51  CHL1      H11A          -27.4813269828      -11.1954722024       12.7974800000  MEMB      51              0.0000000000
      6025        51  CHL1      H11B          -26.0107910766      -10.7680779524       13.7201200000  MEMB      51              0.0000000000
      6026        51  CHL1      C9            -27.0860638783       -9.0879676472       13.3338000000  MEMB      51              0.0000000000
      6027        51  CHL1      H9            -26.1489517976       -8.5074868569       13.4722700000  MEMB      51              0.0000000000
      6028        51  CHL1      C10           -27.9615017735       -8.9716166784       14.6047700000  MEMB      51              0.0000000000
      6029        51  CHL1      C19           -29.1645407207       -9.9225752612       14.5650800000  MEMB      51              0.0000000000
      6030        51  CHL1      H19A          -28.8534311394      -10.9830732273       14.6785200000  MEMB      51              0.0000000000
      6031        51  CHL1      H19B          -29.8100639387       -9.6549970727       15.4288000000  MEMB      51              0.0000000000
      6032        51  CHL1      H19C          -29.7145818294       -9.7851837360       13.6096200000  MEMB      51              0.0000000000
      6033        51  CHL1      C1            -27.1162256390       -9.4203467269       15.8496500000  MEMB      51              0.0000000000
      6034        51  CHL1      H1A           -26.8359381851      -10.4773925255       15.6536400000  MEMB      51              0.0000000000
      6035        51  CHL1      H1B           -26.1268194591       -8.9151668933       15.8632000000  MEMB      51              0.0000000000
      6036        51  CHL1      C2            -27.8553819761       -9.2682185670       17.2217800000  MEMB      51              0.0000000000
      6037        51  CHL1      H2A           -27.1287583795       -9.5409971683       18.0167200000  MEMB      51              0.0000000000
      6038        51  CHL1      H2B           -28.6825345321       -9.9980924061       17.3538000000  MEMB      51              0.0000000000
      6039        51  CHL1      C20           -26.3814349544      -10.9087333074        7.9711700000  MEMB      51              0.0000000000
      6040        51  CHL1      H20           -27.4322840929      -11.1196368878        7.6786700000  MEMB      51              0.0000000000
      6041        51  CHL1      C21           -25.8539553354      -12.2171594060        8.6437100000  MEMB      51              0.0000000000
      6042        51  CHL1      H21A          -26.0200406847      -13.0271808951        7.9016900000  MEMB      51              0.0000000000
      6043        51  CHL1      H21B          -26.4142748974      -12.5277676169        9.5514000000  MEMB      51              0.0000000000
      6044        51  CHL1      H21C          -24.7667180545      -12.0960426182        8.8374900000  MEMB      51              0.0000000000
      6045        51  CHL1      C22           -25.6111559378      -10.5420234822        6.7251000000  MEMB      51              0.0000000000
      6046        51  CHL1      H22A          -26.1706845873       -9.7022182245        6.2603700000  MEMB      51              0.0000000000
      6047        51  CHL1      H22B          -24.5711923593      -10.2018271921        6.9176200000  MEMB      51              0.0000000000
      6048        51  CHL1      C23           -25.5693712330      -11.6499342895        5.6323300000  MEMB      51              0.0000000000
      6049        51  CHL1      H23A          -24.8930859198      -12.3656546424        6.1468400000  MEMB      51              0.0000000000
      6050        51  CHL1      H23B          -26.5776248387      -12.1074655540        5.5406700000  MEMB      51              0.0000000000
      6051        51  CHL1      C24           -24.9295831802      -11.1703917027        4.3379700000  MEMB      51              0.0000000000
      6052        51  CHL1      H24A          -23.9235968286      -10.7700685256        4.5870900000  MEMB      51              0.0000000000
      6053        51  CHL1      H24B          -24.8002226039      -12.0820614283        3.7163200000  MEMB      51              0.0000000000
      6054        51  CHL1      C25           -25.6610551126      -10.0093317419        3.5697900000  MEMB      51              0.0000000000
      6055        51  CHL1      H25           -25.8584874381       -9.1070381057        4.1872000000  MEMB      51              0.0000000000
      6056        51  CHL1      C26           -24.7664662480       -9.5781492389        2.4183300000  MEMB      51              0.0000000000
      6057        51  CHL1      H26A          -25.1879557148       -8.6830884109        1.9128100000  MEMB      51              0.0000000000
      6058        51  CHL1      H26B          -23.8776458493       -9.0804027839        2.8616800000  MEMB      51              0.0000000000
      6059        51  CHL1      H26C          -24.4272042509      -10.4554429256        1.8270800000  MEMB      51              0.0000000000
      6060        51  CHL1      C27           -27.0412893455      -10.4837637215        2.9806400000  MEMB      51              0.0000000000
      6061        51  CHL1      H27A          -27.7031764595      -10.8814061031        3.7794600000  MEMB      51              0.0000000000
      6062        51  CHL1      H27B          -27.5178907631       -9.6531730772        2.4173500000  MEMB      51              0.0000000000
      6063        51  CHL1      H27C          -26.7960733394      -11.2788135458        2.2443800000  MEMB      51              0.0000000000
      6064        52  CHL1      C3             28.1650305579       11.9127754034       17.3510300000  MEMB      52              0.0000000000
      6065        52  CHL1      H3             28.9467904561       12.7014950223       17.3178700000  MEMB      52              0.0000000000
      6066        52  CHL1      O3             27.8768230421       11.5443221966       18.6489700000  MEMB      52              0.0000000000
      6067        52  CHL1      H3'            28.3738110792       12.1382159865       19.2163300000  MEMB      52              0.0000000000
      6068        52  CHL1      C4             26.9181186228       12.4584131514       16.6204600000  MEMB      52              0.0000000000
      6069        52  CHL1      H4A            26.0956276519       11.7182844310       16.7206500000  MEMB      52              0.0000000000
      6070        52  CHL1      H4B            26.6376782620       13.3265307841       17.2545200000  MEMB      52              0.0000000000
      6071        52  CHL1      C5             27.2048979351       12.8947678180       15.2384400000  MEMB      52              0.0000000000
      6072        52  CHL1      C6             27.0397811886       14.1693767058       14.8367900000  MEMB      52              0.0000000000
      6073        52  CHL1      H6             26.5745847786       14.8744001004       15.5414300000  MEMB      52              0.0000000000
      6074        52  CHL1      C7             27.2834141844       14.6302709196       13.4620300000  MEMB      52              0.0000000000
      6075        52  CHL1      H7A            26.4905752483       15.3486816227       13.1626500000  MEMB      52              0.0000000000
      6076        52  CHL1      H7B            28.2670513703       15.1324934732       13.3414500000  MEMB      52              0.0000000000
      6077        52  CHL1      C8             27.1721600279       13.3617136499       12.4326400000  MEMB      52              0.0000000000
      6078        52  CHL1      H8             26.1475308725       12.9345779876       12.4776600000  MEMB      52              0.0000000000
      6079        52  CHL1      C14            27.5565727098       13.8850492554       11.0801300000  MEMB      52              0.0000000000
      6080        52  CHL1      H14            28.5576869110       14.3535213996       11.1925200000  MEMB      52              0.0000000000
      6081        52  CHL1      C15            26.6303439310       14.8575099041       10.3052700000  MEMB      52              0.0000000000
      6082        52  CHL1      H15A           25.5649661068       14.5958386818       10.4808200000  MEMB      52              0.0000000000
      6083        52  CHL1      H15B           26.7355378191       15.8804639930       10.7257700000  MEMB      52              0.0000000000
      6084        52  CHL1      C16            26.9135948685       14.5979428893        8.8396300000  MEMB      52              0.0000000000
      6085        52  CHL1      H16A           25.9724932727       14.3271084611        8.3149500000  MEMB      52              0.0000000000
      6086        52  CHL1      H16B           27.4568917895       15.4655290296        8.4078500000  MEMB      52              0.0000000000
      6087        52  CHL1      C17            27.8857215772       13.4048251461        8.7352100000  MEMB      52              0.0000000000
      6088        52  CHL1      H17            28.9676206183       13.6569924381        8.7200900000  MEMB      52              0.0000000000
      6089        52  CHL1      C13            27.7026723516       12.7207010974       10.0699500000  MEMB      52              0.0000000000
      6090        52  CHL1      C18            26.4128734161       11.8345899235        9.9051800000  MEMB      52              0.0000000000
      6091        52  CHL1      H18A           26.1490039091       11.3277497717       10.8579700000  MEMB      52              0.0000000000
      6092        52  CHL1      H18B           25.5026250919       12.3571495720        9.5409200000  MEMB      52              0.0000000000
      6093        52  CHL1      H18C           26.6006463487       11.0600273348        9.1311500000  MEMB      52              0.0000000000
      6094        52  CHL1      C12            28.9365299157       11.8425970433       10.6150000000  MEMB      52              0.0000000000
      6095        52  CHL1      H12A           29.2995681100       11.1273073020        9.8463100000  MEMB      52              0.0000000000
      6096        52  CHL1      H12B           29.7621342604       12.5340546706       10.8881100000  MEMB      52              0.0000000000
      6097        52  CHL1      C11            28.6567118901       11.2016564618       11.9245300000  MEMB      52              0.0000000000
      6098        52  CHL1      H11A           27.9065405898       10.4088671770       11.7170700000  MEMB      52              0.0000000000
      6099        52  CHL1      H11B           29.5605586869       10.7611301148       12.3971100000  MEMB      52              0.0000000000
      6100        52  CHL1      C9             28.1503321990       12.3134799340       12.9911300000  MEMB      52              0.0000000000
      6101        52  CHL1      H9             29.1083081256       12.8243604708       13.2269300000  MEMB      52              0.0000000000
      6102        52  CHL1      C10            27.7708336879       11.7686142234       14.4010700000  MEMB      52              0.0000000000
      6103        52  CHL1      C19            26.6842010968       10.7163089802       14.1075300000  MEMB      52              0.0000000000
      6104        52  CHL1      H19A           26.5853970889       10.0760391480       15.0100900000  MEMB      52              0.0000000000
      6105        52  CHL1      H19B           25.7050607394       11.2081803010       13.9240200000  MEMB      52              0.0000000000
      6106        52  CHL1      H19C           26.9372507214       10.0513006136       13.2542800000  MEMB      52              0.0000000000
      6107        52  CHL1      C1             29.0510764033       11.1642286595       15.1109000000  MEMB      52              0.0000000000
      6108        52  CHL1      H1A            29.5497842001       10.3293329624       14.5737400000  MEMB      52              0.0000000000
      6109        52  CHL1      H1B            29.7966125571       11.9877799584       15.1271500000  MEMB      52              0.0000000000
      6110        52  CHL1      C2             28.7901695228       10.7111590930       16.5804300000  MEMB      52              0.0000000000
      6111        52  CHL1      H2A            29.7448748781       10.4075068222       17.0607000000  MEMB      52              0.0000000000
      6112        52  CHL1      H2B            28.0181883241        9.9152360351       16.6501400000  MEMB      52              0.0000000000
      6113        52  CHL1      C20            27.7102311244       12.5626700480        7.4132500000  MEMB      52              0.0000000000
      6114        52  CHL1      H20            26.6720270074       12.2128315662        7.2286900000  MEMB      52              0.0000000000
      6115        52  CHL1      C21            28.6085769310       11.3446161908        7.2675400000  MEMB      52              0.0000000000
      6116        52  CHL1      H21A           28.3273654300       10.5611215639        8.0033200000  MEMB      52              0.0000000000
      6117        52  CHL1      H21B           29.6606837798       11.6889295532        7.3616200000  MEMB      52              0.0000000000
      6118        52  CHL1      H21C           28.4325874797       10.7844211301        6.3243900000  MEMB      52              0.0000000000
      6119        52  CHL1      C22            27.9246737859       13.5590929118        6.2787600000  MEMB      52              0.0000000000
      6120        52  CHL1      H22A           27.1724910539       14.3767379253        6.2786600000  MEMB      52              0.0000000000
      6121        52  CHL1      H22B           28.9575311449       13.9624278773        6.3484600000  MEMB      52              0.0000000000
      6122        52  CHL1      C23            27.7426362187       12.8294650704        4.9752500000  MEMB      52              0.0000000000
      6123        52  CHL1      H23A           28.6273637429       12.1864567404        4.7799900000  MEMB      52              0.0000000000
      6124        52  CHL1      H23B           26.9305400089       12.0781548501        5.0769900000  MEMB      52              0.0000000000
      6125        52  CHL1      C24            27.4953930187       13.7246082061        3.7811000000  MEMB      52              0.0000000000
      6126        52  CHL1      H24A           26.5460759861       14.2417075232        4.0374400000  MEMB      52              0.0000000000
      6127        52  CHL1      H24B           28.3593051438       14.4043275895        3.6199800000  MEMB      52              0.0000000000
      6128        52  CHL1      C25            27.2906038405       13.0202333486        2.4461300000  MEMB      52              0.0000000000
      6129        52  CHL1      H25            26.4734375120       12.2703571422        2.5112700000  MEMB      52              0.0000000000
      6130        52  CHL1      C26            26.8150295028       13.9965525574        1.2979800000  MEMB      52              0.0000000000
      6131        52  CHL1      H26A           26.7866276072       13.3091366482        0.4256400000  MEMB      52              0.0000000000
      6132        52  CHL1      H26B           25.8912131002       14.5233280861        1.6195200000  MEMB      52              0.0000000000
      6133        52  CHL1      H26C           27.5799334187       14.7991193694        1.2263600000  MEMB      52              0.0000000000
      6134        52  CHL1      C27            28.5305700022       12.4410273801        1.8995400000  MEMB      52              0.0000000000
      6135        52  CHL1      H27A           28.2544057192       11.8702649936        0.9872500000  MEMB      52              0.0000000000
      6136        52  CHL1      H27B           29.3202773665       13.1913406052        1.6810800000  MEMB      52              0.0000000000
      6137        52  CHL1      H27C           28.9529743999       11.7090387080        2.6207000000  MEMB      52              0.0000000000
      6138        53  CHL1      C3              8.7710602462      -29.1182186970       17.3140300000  MEMB      53              0.0000000000
      6139        53  CHL1      H3              9.1434341103      -30.0877271800       16.9194300000  MEMB      53              0.0000000000
      6140        53  CHL1      O3              8.9150010938      -29.0921243030       18.6859700000  MEMB      53              0.0000000000
      6141        53  CHL1      H3'             8.6279543712      -28.2013818363       18.8999300000  MEMB      53              0.0000000000
      6142        53  CHL1      C4              9.4935851832      -27.9183675446       16.7376300000  MEMB      53              0.0000000000
      6143        53  CHL1      H4A             9.2337171419      -26.9449154286       17.2057800000  MEMB      53              0.0000000000
      6144        53  CHL1      H4B            10.5492041817      -28.1136447403       17.0237100000  MEMB      53              0.0000000000
      6145        53  CHL1      C5              9.3815221293      -27.9338595867       15.2772500000  MEMB      53              0.0000000000
      6146        53  CHL1      C6             10.4194901493      -28.0852122397       14.4161400000  MEMB      53              0.0000000000
      6147        53  CHL1      H6             11.4001168145      -28.1465097339       14.9107400000  MEMB      53              0.0000000000
      6148        53  CHL1      C7             10.3377239483      -28.1338069964       12.9312700000  MEMB      53              0.0000000000
      6149        53  CHL1      H7A            11.2485096271      -27.7689617221       12.4100500000  MEMB      53              0.0000000000
      6150        53  CHL1      H7B            10.2659212530      -29.2176952758       12.6981300000  MEMB      53              0.0000000000
      6151        53  CHL1      C8              8.9911156531      -27.4648238846       12.3820700000  MEMB      53              0.0000000000
      6152        53  CHL1      H8              9.0512279860      -26.3667313831       12.5398600000  MEMB      53              0.0000000000
      6153        53  CHL1      C14             8.8106161429      -27.7583254670       10.9234400000  MEMB      53              0.0000000000
      6154        53  CHL1      H14             8.6908907990      -28.8589304610       10.8304300000  MEMB      53              0.0000000000
      6155        53  CHL1      C15             9.9526572386      -27.4921743034        9.8930500000  MEMB      53              0.0000000000
      6156        53  CHL1      H15A           10.4694533620      -26.5133227695        9.9884400000  MEMB      53              0.0000000000
      6157        53  CHL1      H15B           10.6762268656      -28.3329214778        9.9555400000  MEMB      53              0.0000000000
      6158        53  CHL1      C16             9.2676237763      -27.5049239431        8.5736400000  MEMB      53              0.0000000000
      6159        53  CHL1      H16A            9.3266143364      -26.5429383334        8.0209800000  MEMB      53              0.0000000000
      6160        53  CHL1      H16B            9.7274134956      -28.3822890402        8.0705000000  MEMB      53              0.0000000000
      6161        53  CHL1      C17             7.7219898203      -27.7791020644        8.8539700000  MEMB      53              0.0000000000
      6162        53  CHL1      H17             7.5811042962      -28.8743132308        8.9763100000  MEMB      53              0.0000000000
      6163        53  CHL1      C13             7.5135696905      -27.2331980605       10.2566300000  MEMB      53              0.0000000000
      6164        53  CHL1      C18             7.4897323131      -25.7049794112       10.2114300000  MEMB      53              0.0000000000
      6165        53  CHL1      H18A            8.2454245086      -25.4396291113        9.4414700000  MEMB      53              0.0000000000
      6166        53  CHL1      H18B            6.4908566926      -25.3886450655        9.8419900000  MEMB      53              0.0000000000
      6167        53  CHL1      H18C            7.7518783068      -25.2494886152       11.1902700000  MEMB      53              0.0000000000
      6168        53  CHL1      C12             6.3058426794      -27.7446391536       11.0969100000  MEMB      53              0.0000000000
      6169        53  CHL1      H12A            5.3290959455      -27.3057418769       10.8008300000  MEMB      53              0.0000000000
      6170        53  CHL1      H12B            6.1866798361      -28.8212731528       10.8499500000  MEMB      53              0.0000000000
      6171        53  CHL1      C11             6.4143157806      -27.4685759089       12.5901300000  MEMB      53              0.0000000000
      6172        53  CHL1      H11A            6.3480248873      -26.3749790157       12.7744300000  MEMB      53              0.0000000000
      6173        53  CHL1      H11B            5.4979770149      -27.8480533746       13.0907800000  MEMB      53              0.0000000000
      6174        53  CHL1      C9              7.7349803171      -27.9884576877       13.1887600000  MEMB      53              0.0000000000
      6175        53  CHL1      H9              7.7498804823      -29.0636186494       12.9092600000  MEMB      53              0.0000000000
      6176        53  CHL1      C10             7.9159112748      -27.8128901465       14.7182100000  MEMB      53              0.0000000000
      6177        53  CHL1      C19             7.4468308327      -26.3869896076       15.0690100000  MEMB      53              0.0000000000
      6178        53  CHL1      H19A            6.3447548454      -26.4572725381       14.9472900000  MEMB      53              0.0000000000
      6179        53  CHL1      H19B            7.5616215343      -26.1345358191       16.1448400000  MEMB      53              0.0000000000
      6180        53  CHL1      H19C            7.7539975604      -25.5851957663       14.3639500000  MEMB      53              0.0000000000
      6181        53  CHL1      C1              7.0784008831      -28.8318503754       15.4227400000  MEMB      53              0.0000000000
      6182        53  CHL1      H1A             6.0112015833      -28.5779286955       15.2468800000  MEMB      53              0.0000000000
      6183        53  CHL1      H1B             7.2975470218      -29.7868538288       14.8990500000  MEMB      53              0.0000000000
      6184        53  CHL1      C2              7.3226187334      -29.0138314582       16.9652300000  MEMB      53              0.0000000000
      6185        53  CHL1      H2A             6.6827088395      -29.8587648382       17.2982900000  MEMB      53              0.0000000000
      6186        53  CHL1      H2B             6.9282477481      -28.0622750964       17.3815500000  MEMB      53              0.0000000000
      6187        53  CHL1      C20             6.7790303370      -27.2890453652        7.6500300000  MEMB      53              0.0000000000
      6188        53  CHL1      H20             6.6996334548      -26.1812543375        7.6786900000  MEMB      53              0.0000000000
      6189        53  CHL1      C21             5.3172502316      -27.9105050159        7.8644900000  MEMB      53              0.0000000000
      6190        53  CHL1      H21A            5.2665234667      -28.9830371885        7.5791300000  MEMB      53              0.0000000000
      6191        53  CHL1      H21B            4.6596469537      -27.4130621504        7.1198900000  MEMB      53              0.0000000000
      6192        53  CHL1      H21C            4.9565585326      -27.6386053241        8.8795200000  MEMB      53              0.0000000000
      6193        53  CHL1      C22             7.3314441755      -27.6569970124        6.2328100000  MEMB      53              0.0000000000
      6194        53  CHL1      H22A            8.4381429173      -27.7546923419        6.2323600000  MEMB      53              0.0000000000
      6195        53  CHL1      H22B            6.8725551255      -28.6303551182        5.9565500000  MEMB      53              0.0000000000
      6196        53  CHL1      C23             7.0853139488      -26.5143182749        5.2218800000  MEMB      53              0.0000000000
      6197        53  CHL1      H23A            6.7241102768      -26.8808710263        4.2372500000  MEMB      53              0.0000000000
      6198        53  CHL1      H23B            6.1535323830      -25.9495514301        5.4390200000  MEMB      53              0.0000000000
      6199        53  CHL1      C24             8.2404058620      -25.4851971537        5.0148900000  MEMB      53              0.0000000000
      6200        53  CHL1      H24A            7.9353632357      -24.6580500198        4.3387900000  MEMB      53              0.0000000000
      6201        53  CHL1      H24B            8.5772730451      -25.0282086775        5.9698800000  MEMB      53              0.0000000000
      6202        53  CHL1      C25             9.5112399906      -25.8941758534        4.2784300000  MEMB      53              0.0000000000
      6203        53  CHL1      H25            10.0410398653      -26.6614280511        4.8825300000  MEMB      53              0.0000000000
      6204        53  CHL1      C26             9.3415568968      -26.4044098859        2.8420000000  MEMB      53              0.0000000000
      6205        53  CHL1      H26A           10.2938757057      -26.7884756910        2.4178700000  MEMB      53              0.0000000000
      6206        53  CHL1      H26B            8.6262127263      -27.2484057650        2.9433900000  MEMB      53              0.0000000000
      6207        53  CHL1      H26C            8.9169363244      -25.6371281576        2.1598600000  MEMB      53              0.0000000000
      6208        53  CHL1      C27            10.4921451138      -24.6983717928        4.1556300000  MEMB      53              0.0000000000
      6209        53  CHL1      H27A            9.9359404001      -23.7710228129        3.9007500000  MEMB      53              0.0000000000
      6210        53  CHL1      H27B           11.0195511839      -24.5004433427        5.1132300000  MEMB      53              0.0000000000
      6211        53  CHL1      H27C           11.2893548750      -24.8412527669        3.3951300000  MEMB      53              0.0000000000
      6212        54  POPC      N              30.8004715142       -8.2871336003       20.3852376869  MEMB      54              0.0000000000
      6213        54  POPC      C12            30.0176007605       -9.5435807878       20.7407537709  MEMB      54              0.0000000000
      6214        54  POPC      H12A           29.0609934531       -9.1487610299       21.0496547521  MEMB      54              0.0000000000
      6215        54  POPC      H12B           30.4728127468       -9.9891587791       21.6129020143  MEMB      54              0.0000000000
      6216        54  POPC      C13            30.0978226940       -7.4961527053       19.3066693317  MEMB      54              0.0000000000
      6217        54  POPC      H13A           30.1564808894       -8.1770868969       18.4704349819  MEMB      54              0.0000000000
      6218        54  POPC      H13B           29.1127978759       -7.2783251706       19.6922560964  MEMB      54              0.0000000000
      6219        54  POPC      H13C           30.5770325942       -6.5703059918       19.0245957215  MEMB      54              0.0000000000
      6220        54  POPC      C14            30.9795846423       -7.3736942878       21.6253932041  MEMB      54              0.0000000000
      6221        54  POPC      H14A           31.6268053773       -7.8551860013       22.3434955467  MEMB      54              0.0000000000
      6222        54  POPC      H14B           31.4959788437       -6.4351980237       21.4876927007  MEMB      54              0.0000000000
      6223        54  POPC      H14C           30.0477958515       -7.1135479289       22.1054906768  MEMB      54              0.0000000000
      6224        54  POPC      C15            32.1763317601       -8.6107521405       19.9585627067  MEMB      54              0.0000000000
      6225        54  POPC      H15A           32.6779897144       -9.0735169997       20.7955741261  MEMB      54              0.0000000000
      6226        54  POPC      H15B           32.6756321095       -7.6876923030       19.7034946526  MEMB      54              0.0000000000
      6227        54  POPC      H15C           32.2377265449       -9.2645316933       19.1011229933  MEMB      54              0.0000000000
      6228        54  POPC      C11            29.7577371315      -10.5959198411       19.6768918927  MEMB      54              0.0000000000
      6229        54  POPC      H11A           29.2839567613      -11.3661316342       20.3223582392  MEMB      54              0.0000000000
      6230        54  POPC      H11B           30.7133585439      -10.9314557879       19.2202472298  MEMB      54              0.0000000000
      6231        54  POPC      P              28.5048037572      -11.0490621508       17.4224195806  MEMB      54              0.0000000000
      6232        54  POPC      O13            27.4614944871      -10.3780052648       16.5628441246  MEMB      54              0.0000000000
      6233        54  POPC      O14            28.1518409063      -12.4789333116       17.8185181840  MEMB      54              0.0000000000
      6234        54  POPC      O12            28.8560336369      -10.1291934191       18.7146143542  MEMB      54              0.0000000000
      6235        54  POPC      O11            29.9718641617      -11.0759145162       16.7880951680  MEMB      54              0.0000000000
      6236        54  POPC      C1             30.4469723722       -9.8646758209       16.2214125036  MEMB      54              0.0000000000
      6237        54  POPC      HA             31.4998212479       -9.6323243378       16.4894481088  MEMB      54              0.0000000000
      6238        54  POPC      HB             29.8733862672       -9.0097759036       16.6391039345  MEMB      54              0.0000000000
      6239        54  POPC      C2             30.3221671744       -9.9488463970       14.6811336253  MEMB      54              0.0000000000
      6240        54  POPC      HS             29.2624996506       -9.9730985309       14.3482108050  MEMB      54              0.0000000000
      6241        54  POPC      O21            30.9505065928      -11.1384355812       14.0845159621  MEMB      54              0.0000000000
      6242        54  POPC      C21            30.1741542807      -12.2280659448       14.0566477963  MEMB      54              0.0000000000
      6243        54  POPC      O22            28.9681650817      -12.2684287258       14.2553807341  MEMB      54              0.0000000000
      6244        54  POPC      C22            30.9717978452      -13.4601888537       13.5823938680  MEMB      54              0.0000000000
      6245        54  POPC      H2R            31.0538001233      -14.2111319313       14.3970600109  MEMB      54              0.0000000000
      6246        54  POPC      H2S            31.9460059656      -13.0929620422       13.1946003778  MEMB      54              0.0000000000
      6247        54  POPC      C3             30.9441714182       -8.6479095246       14.0780799998  MEMB      54              0.0000000000
      6248        54  POPC      HX             31.9567638691       -8.5180585804       14.5163903642  MEMB      54              0.0000000000
      6249        54  POPC      HY             30.3140872136       -7.7672680548       14.3266467100  MEMB      54              0.0000000000
      6250        54  POPC      O31            31.0533084942       -8.6059083969       12.6481302857  MEMB      54              0.0000000000
      6251        54  POPC      C31            29.8686198910       -8.3623303767       11.9972755560  MEMB      54              0.0000000000
      6252        54  POPC      O32            28.8573650308       -8.2543516043       12.6293110474  MEMB      54              0.0000000000
      6253        54  POPC      C32            30.1635764892       -8.3266751992       10.5299681777  MEMB      54              0.0000000000
      6254        54  POPC      H2X            29.7213111494       -9.1522532695        9.9323534730  MEMB      54              0.0000000000
      6255        54  POPC      H2Y            31.2513369668       -8.4115124849       10.3204427790  MEMB      54              0.0000000000
      6256        54  POPC      C23            30.1668293907      -14.0328247402       12.4467314169  MEMB      54              0.0000000000
      6257        54  POPC      H3R            29.1708039404      -14.3310667165       12.8382746728  MEMB      54              0.0000000000
      6258        54  POPC      H3S            30.5762620428      -14.9633941882       11.9987062172  MEMB      54              0.0000000000
      6259        54  POPC      C24            29.9982408526      -13.0556675105       11.2296976528  MEMB      54              0.0000000000
      6260        54  POPC      H4R            29.3960284380      -12.1416316554       11.4199592942  MEMB      54              0.0000000000
      6261        54  POPC      H4S            29.3386562755      -13.6210403610       10.5371495113  MEMB      54              0.0000000000
      6262        54  POPC      C25            31.1754987655      -12.8475523091       10.2528206931  MEMB      54              0.0000000000
      6263        54  POPC      H5R            30.8224506571      -12.7860476059        9.2012054561  MEMB      54              0.0000000000
      6264        54  POPC      H5S            31.9752149462      -13.6173129041       10.3001878111  MEMB      54              0.0000000000
      6265        54  POPC      C26            31.8350350601      -11.4994707263       10.5837368687  MEMB      54              0.0000000000
      6266        54  POPC      H6R            31.8747656072      -11.3710804251       11.6865781321  MEMB      54              0.0000000000
      6267        54  POPC      H6S            31.2741257485      -10.6525898809       10.1337428044  MEMB      54              0.0000000000
      6268        54  POPC      C27            33.2716368176      -11.3288552801       10.0169669548  MEMB      54              0.0000000000
      6269        54  POPC      H7R            33.8837856671      -12.1639935977       10.4196318637  MEMB      54              0.0000000000
      6270        54  POPC      H7S            33.7010967623      -10.3523959245       10.3274704651  MEMB      54              0.0000000000
      6271        54  POPC      C28            33.4066380133      -11.3348441037        8.4842258221  MEMB      54              0.0000000000
      6272        54  POPC      H8R            33.0799953169      -12.3374300300        8.1343007811  MEMB      54              0.0000000000
      6273        54  POPC      H8S            34.4913157547      -11.2843421036        8.2491836679  MEMB      54              0.0000000000
      6274        54  POPC      C29            32.6902267238      -10.1472091270        7.9047606058  MEMB      54              0.0000000000
      6275        54  POPC      H91            32.9432257418       -9.1991719056        8.4019700953  MEMB      54              0.0000000000
      6276        54  POPC      C210           31.7647641025      -10.1602781100        6.9445808231  MEMB      54              0.0000000000
      6277        54  POPC      H101           31.3111335990       -9.2824930713        6.4611423979  MEMB      54              0.0000000000
      6278        54  POPC      C211           31.2904903480      -11.5000804916        6.3481812321  MEMB      54              0.0000000000
      6279        54  POPC      H11R           30.6176928523      -12.0263983740        7.0585707045  MEMB      54              0.0000000000
      6280        54  POPC      H11S           32.0744392995      -12.2150579521        6.0187075118  MEMB      54              0.0000000000
      6281        54  POPC      C212           30.6721834932      -11.1622453188        5.0627066056  MEMB      54              0.0000000000
      6282        54  POPC      H12R           29.9259304436      -10.3395889466        5.0369423107  MEMB      54              0.0000000000
      6283        54  POPC      H12S           30.1607410911      -12.0816205587        4.7056394437  MEMB      54              0.0000000000
      6284        54  POPC      C213           31.7064247730      -10.8029468771        3.9934233446  MEMB      54              0.0000000000
      6285        54  POPC      H13R           32.2777672482       -9.9274008752        4.3693331795  MEMB      54              0.0000000000
      6286        54  POPC      H13S           31.1586655579      -10.3240002690        3.1538463182  MEMB      54              0.0000000000
      6287        54  POPC      C214           32.6125914181      -11.9223165543        3.5229699922  MEMB      54              0.0000000000
      6288        54  POPC      H14R           32.0622212057      -12.8866238161        3.5620224951  MEMB      54              0.0000000000
      6289        54  POPC      H14S           33.5053734640      -12.0509076304        4.1716042146  MEMB      54              0.0000000000
      6290        54  POPC      C215           33.2124479860      -11.7361578937        2.0971412133  MEMB      54              0.0000000000
      6291        54  POPC      H15R           33.7157285198      -12.6574594816        1.7335033551  MEMB      54              0.0000000000
      6292        54  POPC      H15S           34.1124258841      -11.0847464516        2.1020414766  MEMB      54              0.0000000000
      6293        54  POPC      C216           32.2661831385      -11.2261549773        0.9587503366  MEMB      54              0.0000000000
      6294        54  POPC      H16R           31.9931097645      -10.1504968462        1.0108194259  MEMB      54              0.0000000000
      6295        54  POPC      H16S           31.2729264344      -11.6945940301        1.1270566543  MEMB      54              0.0000000000
      6296        54  POPC      C217           32.8604329450      -11.5342293032       -0.4505965769  MEMB      54              0.0000000000
      6297        54  POPC      H17R           33.2125596532      -12.5878056662       -0.4331435182  MEMB      54              0.0000000000
      6298        54  POPC      H17S           33.7703186352      -10.9236040308       -0.6338057719  MEMB      54              0.0000000000
      6299        54  POPC      C218           31.8211755265      -11.4025730203       -1.5136219467  MEMB      54              0.0000000000
      6300        54  POPC      H18R           31.1619700318      -12.2927266374       -1.4276248908  MEMB      54              0.0000000000
      6301        54  POPC      H18S           32.1433939631      -11.4162582962       -2.5767830679  MEMB      54              0.0000000000
      6302        54  POPC      H18T           31.1488960626      -10.5586051493       -1.2488972976  MEMB      54              0.0000000000
      6303        54  POPC      C33            29.7137967639       -6.9476461472       10.0193865317  MEMB      54              0.0000000000
      6304        54  POPC      H3X            30.2707603005       -6.1469410072       10.5513483645  MEMB      54              0.0000000000
      6305        54  POPC      H3Y            28.6348883715       -6.8062901908       10.2436543471  MEMB      54              0.0000000000
      6306        54  POPC      C34            30.1068442229       -6.8273662016        8.4882460399  MEMB      54              0.0000000000
      6307        54  POPC      H4X            29.6577506401       -7.7167208250        7.9966321981  MEMB      54              0.0000000000
      6308        54  POPC      H4Y            31.2101006327       -6.9225046803        8.3982732331  MEMB      54              0.0000000000
      6309        54  POPC      C35            29.4721240044       -5.5389836047        7.8565449469  MEMB      54              0.0000000000
      6310        54  POPC      H5X            29.4962655778       -4.7277221532        8.6152232183  MEMB      54              0.0000000000
      6311        54  POPC      H5Y            28.3940343340       -5.6783304788        7.6271420365  MEMB      54              0.0000000000
      6312        54  POPC      C36            30.0059297494       -5.0833393078        6.4410246820  MEMB      54              0.0000000000
      6313        54  POPC      H6X            31.1008948596       -5.1450369963        6.6186914704  MEMB      54              0.0000000000
      6314        54  POPC      H6Y            29.7505812394       -4.0044564310        6.3693989325  MEMB      54              0.0000000000
      6315        54  POPC      C37            29.5548075606       -5.8898184196        5.1760249479  MEMB      54              0.0000000000
      6316        54  POPC      H7X            28.5005928775       -5.5795270275        5.0127089495  MEMB      54              0.0000000000
      6317        54  POPC      H7Y            29.6853709971       -6.9785883165        5.3545021442  MEMB      54              0.0000000000
      6318        54  POPC      C38            30.4310917547       -5.4582431074        3.9472706680  MEMB      54              0.0000000000
      6319        54  POPC      H8X            31.3345268289       -6.1013264342        3.8796707002  MEMB      54              0.0000000000
      6320        54  POPC      H8Y            30.7802156751       -4.4088649225        4.0532869384  MEMB      54              0.0000000000
      6321        54  POPC      C39            29.5701414305       -5.4240934515        2.6575180663  MEMB      54              0.0000000000
      6322        54  POPC      H9X            29.9759309511       -4.7609606529        1.8638489242  MEMB      54              0.0000000000
      6323        54  POPC      H9Y            28.7062660532       -4.8394302521        3.0398926619  MEMB      54              0.0000000000
      6324        54  POPC      C310           29.0177657277       -6.8000228670        2.1630008138  MEMB      54              0.0000000000
      6325        54  POPC      H10X           28.2355829564       -6.6647892045        1.3856820591  MEMB      54              0.0000000000
      6326        54  POPC      H10Y           28.5949854742       -7.3670761529        3.0197561201  MEMB      54              0.0000000000
      6327        54  POPC      C311           30.0585428330       -7.6429267027        1.4537039522  MEMB      54              0.0000000000
      6328        54  POPC      H11X           30.7097856851       -8.1880888573        2.1699456342  MEMB      54              0.0000000000
      6329        54  POPC      H11Y           30.7665968232       -7.0775844774        0.8107658415  MEMB      54              0.0000000000
      6330        54  POPC      C312           29.3657677266       -8.6260208243        0.4539753546  MEMB      54              0.0000000000
      6331        54  POPC      H12X           30.1527281410       -9.1875022402       -0.0935208053  MEMB      54              0.0000000000
      6332        54  POPC      H12Y           28.9462700591       -8.0827088475       -0.4196118424  MEMB      54              0.0000000000
      6333        54  POPC      C313           28.2723524955       -9.4850104651        1.0611470474  MEMB      54              0.0000000000
      6334        54  POPC      H13X           27.4176673240       -8.8014423520        1.2523785895  MEMB      54              0.0000000000
      6335        54  POPC      H13Y           28.6893799871       -9.8834946683        2.0106842056  MEMB      54              0.0000000000
      6336        54  POPC      C314           27.7979940930      -10.6398778098        0.0711252810  MEMB      54              0.0000000000
      6337        54  POPC      H14X           28.6767876288      -11.2025904247       -0.3101854868  MEMB      54              0.0000000000
      6338        54  POPC      H14Y           27.2600863762      -10.1965236593       -0.7939838455  MEMB      54              0.0000000000
      6339        54  POPC      C315           26.8272595878      -11.6478667131        0.6700466189  MEMB      54              0.0000000000
      6340        54  POPC      H15X           26.0217210206      -11.1604897844        1.2598704962  MEMB      54              0.0000000000
      6341        54  POPC      H15Y           27.4874080319      -12.1669231237        1.3974437164  MEMB      54              0.0000000000
      6342        54  POPC      C316           26.0992600220      -12.5773629019       -0.3164152317  MEMB      54              0.0000000000
      6343        54  POPC      H16X           26.8975075465      -12.8957376936       -1.0205170091  MEMB      54              0.0000000000
      6344        54  POPC      H16Y           25.4182276306      -11.9387060064       -0.9186051868  MEMB      54              0.0000000000
      6345        54  POPC      H16Z           25.5309345381      -13.4327114064        0.1075024840  MEMB      54              0.0000000000
      6346        55  CHL1      C3              0.9970687580      -30.9403418209       17.3541500000  MEMB      55              0.0000000000
      6347        55  CHL1      H3             -0.0862903529      -31.1835695429       17.3155300000  MEMB      55              0.0000000000
      6348        55  CHL1      O3              1.3445211220      -30.3873089791       18.6458500000  MEMB      55              0.0000000000
      6349        55  CHL1      H3'             1.0100275266      -31.0858948020       19.2130300000  MEMB      55              0.0000000000
      6350        55  CHL1      C4              1.8774900803      -32.1499379311       17.0726300000  MEMB      55              0.0000000000
      6351        55  CHL1      H4A             2.9491231535      -31.8868441440       17.2018600000  MEMB      55              0.0000000000
      6352        55  CHL1      H4B             1.6243131593      -32.9085118901       17.8438600000  MEMB      55              0.0000000000
      6353        55  CHL1      C5              1.5407720183      -32.6297349295       15.6913600000  MEMB      55              0.0000000000
      6354        55  CHL1      C6              1.2033126053      -33.9668546019       15.5242600000  MEMB      55              0.0000000000
      6355        55  CHL1      H6              1.1840986626      -34.6711271784       16.3690200000  MEMB      55              0.0000000000
      6356        55  CHL1      C7              0.8490833137      -34.6018142070       14.1586300000  MEMB      55              0.0000000000
      6357        55  CHL1      H7A             1.5337230841      -35.4635861794       14.0071600000  MEMB      55              0.0000000000
      6358        55  CHL1      H7B            -0.1490120669      -35.0890828740       14.1849000000  MEMB      55              0.0000000000
      6359        55  CHL1      C8              1.0175620009      -33.6455973625       12.9826600000  MEMB      55              0.0000000000
      6360        55  CHL1      H8              2.0918122752      -33.8150827491       12.7555400000  MEMB      55              0.0000000000
      6361        55  CHL1      C14             0.3146082675      -34.1461767544       11.7460300000  MEMB      55              0.0000000000
      6362        55  CHL1      H14            -0.7648573023      -33.9182477130       11.8768900000  MEMB      55              0.0000000000
      6363        55  CHL1      C15             0.3780362828      -35.6527748970       11.4080800000  MEMB      55              0.0000000000
      6364        55  CHL1      H15A            1.4457240319      -35.9599595466       11.4098300000  MEMB      55              0.0000000000
      6365        55  CHL1      H15B           -0.0561418969      -36.2267485382       12.2544600000  MEMB      55              0.0000000000
      6366        55  CHL1      C16            -0.2839610231      -35.7185162225       10.0296800000  MEMB      55              0.0000000000
      6367        55  CHL1      H16A            0.2541647678      -36.5233122183        9.4846700000  MEMB      55              0.0000000000
      6368        55  CHL1      H16B           -1.3062751848      -36.0184667994       10.3446700000  MEMB      55              0.0000000000
      6369        55  CHL1      C17            -0.3143828866      -34.2528620775        9.4328600000  MEMB      55              0.0000000000
      6370        55  CHL1      H17            -1.3450907683      -33.8753468206        9.6044500000  MEMB      55              0.0000000000
      6371        55  CHL1      C13             0.5595307939      -33.3887575556       10.4239700000  MEMB      55              0.0000000000
      6372        55  CHL1      C18             2.0170925460      -33.6284767991        9.9350200000  MEMB      55              0.0000000000
      6373        55  CHL1      H18A            2.1186937149      -32.8859810206        9.1148400000  MEMB      55              0.0000000000
      6374        55  CHL1      H18B            2.7749082368      -33.4246547272       10.7214600000  MEMB      55              0.0000000000
      6375        55  CHL1      H18C            2.2824985958      -34.6375073752        9.5532500000  MEMB      55              0.0000000000
      6376        55  CHL1      C12             0.2143308340      -31.9432495903       10.6750100000  MEMB      55              0.0000000000
      6377        55  CHL1      H12A            0.5083782272      -31.2069841611        9.8967000000  MEMB      55              0.0000000000
      6378        55  CHL1      H12B           -0.8719894404      -31.7303100360       10.7692100000  MEMB      55              0.0000000000
      6379        55  CHL1      C11             1.0056096215      -31.3681988421       11.8869000000  MEMB      55              0.0000000000
      6380        55  CHL1      H11A            2.0796347568      -31.2458230372       11.6303300000  MEMB      55              0.0000000000
      6381        55  CHL1      H11B            0.7784282125      -30.3014435239       12.0984000000  MEMB      55              0.0000000000
      6382        55  CHL1      C9              0.7254220116      -32.1816688891       13.2608300000  MEMB      55              0.0000000000
      6383        55  CHL1      H9             -0.3482395810      -32.0407118595       13.5092100000  MEMB      55              0.0000000000
      6384        55  CHL1      C10             1.4821843372      -31.6473468624       14.4939200000  MEMB      55              0.0000000000
      6385        55  CHL1      C19             2.8930287438      -31.2190451559       14.1828700000  MEMB      55              0.0000000000
      6386        55  CHL1      H19A            3.3820425497      -30.8422359945       15.1065600000  MEMB      55              0.0000000000
      6387        55  CHL1      H19B            3.5305340556      -32.0635450433       13.8441600000  MEMB      55              0.0000000000
      6388        55  CHL1      H19C            2.9267853185      -30.3917667126       13.4420700000  MEMB      55              0.0000000000
      6389        55  CHL1      C1              0.7261324231      -30.3870498024       14.9132600000  MEMB      55              0.0000000000
      6390        55  CHL1      H1A             0.8835470825      -29.5722721508       14.1745700000  MEMB      55              0.0000000000
      6391        55  CHL1      H1B            -0.3419308542      -30.6817418419       14.9952100000  MEMB      55              0.0000000000
      6392        55  CHL1      C2              1.1201108729      -29.8826297967       16.3212900000  MEMB      55              0.0000000000
      6393        55  CHL1      H2A             0.4840655129      -29.0176122452       16.6068000000  MEMB      55              0.0000000000
      6394        55  CHL1      H2B             2.1221834175      -29.4086482012       16.2470300000  MEMB      55              0.0000000000
      6395        55  CHL1      C20            -0.0937467890      -34.1902704626        7.9078500000  MEMB      55              0.0000000000
      6396        55  CHL1      H20             0.9554421409      -34.4865770521        7.6939900000  MEMB      55              0.0000000000
      6397        55  CHL1      C21            -0.2863455214      -32.6896359315        7.3774500000  MEMB      55              0.0000000000
      6398        55  CHL1      H21A            0.3287000744      -32.0451734627        8.0413100000  MEMB      55              0.0000000000
      6399        55  CHL1      H21B           -1.3434974652      -32.4525003654        7.6234700000  MEMB      55              0.0000000000
      6400        55  CHL1      H21C           -0.1463921272      -32.5893518457        6.2798800000  MEMB      55              0.0000000000
      6401        55  CHL1      C22            -1.0034432207      -35.1349142651        7.1870400000  MEMB      55              0.0000000000
      6402        55  CHL1      H22A           -0.6881460957      -36.1562258478        7.4900800000  MEMB      55              0.0000000000
      6403        55  CHL1      H22B           -2.0353093626      -34.8207226005        7.4532300000  MEMB      55              0.0000000000
      6404        55  CHL1      C23            -0.8788623886      -35.1580158038        5.6280900000  MEMB      55              0.0000000000
      6405        55  CHL1      H23A           -1.1063295927      -34.1372155977        5.2531900000  MEMB      55              0.0000000000
      6406        55  CHL1      H23B            0.1947507724      -35.3388975093        5.4068300000  MEMB      55              0.0000000000
      6407        55  CHL1      C24            -1.8530236329      -36.0916618281        4.9329600000  MEMB      55              0.0000000000
      6408        55  CHL1      H24A           -1.4078588998      -37.0935340267        4.7529300000  MEMB      55              0.0000000000
      6409        55  CHL1      H24B           -2.7192637655      -36.1923015080        5.6213100000  MEMB      55              0.0000000000
      6410        55  CHL1      C25            -2.3067253931      -35.6669674838        3.5363700000  MEMB      55              0.0000000000
      6411        55  CHL1      H25            -2.7642187196      -34.6643230261        3.3959700000  MEMB      55              0.0000000000
      6412        55  CHL1      C26            -1.1346753804      -35.9076012573        2.5981800000  MEMB      55              0.0000000000
      6413        55  CHL1      H26A           -0.6817072626      -36.9126840927        2.7358100000  MEMB      55              0.0000000000
      6414        55  CHL1      H26B           -1.3529552089      -35.8689371079        1.5095200000  MEMB      55              0.0000000000
      6415        55  CHL1      H26C           -0.5363251203      -34.9721710276        2.6337800000  MEMB      55              0.0000000000
      6416        55  CHL1      C27            -3.3256264991      -36.6238789712        2.7835100000  MEMB      55              0.0000000000
      6417        55  CHL1      H27A           -3.4179528557      -36.3744564734        1.7048100000  MEMB      55              0.0000000000
      6418        55  CHL1      H27B           -3.0645796967      -37.6934679668        2.9323200000  MEMB      55              0.0000000000
      6419        55  CHL1      H27C           -4.3606587686      -36.4671572597        3.1556300000  MEMB      55              0.0000000000
      6420        56  OSM       N              29.4860576068       -2.6492043336       22.2812493247  MEMB      56              0.0000000000
      6421        56  OSM       C15            28.0009803576       -2.4701448038       22.5982097435  MEMB      56              0.0000000000
      6422        56  OSM       H15A           27.8716426859       -3.2247736189       23.3599229617  MEMB      56              0.0000000000
      6423        56  OSM       H15B           27.4452764519       -2.5627562819       21.6767890232  MEMB      56              0.0000000000
      6424        56  OSM       H15C           27.9146011680       -1.5219940709       23.1080615776  MEMB      56              0.0000000000
      6425        56  OSM       C14            30.1111504773       -2.6867557036       23.6396775877  MEMB      56              0.0000000000
      6426        56  OSM       H14A           29.9218157169       -1.8379125291       24.2800039957  MEMB      56              0.0000000000
      6427        56  OSM       H14B           31.1744367538       -2.8696616782       23.6883371564  MEMB      56              0.0000000000
      6428        56  OSM       H14C           29.6845849869       -3.5369905838       24.1510897643  MEMB      56              0.0000000000
      6429        56  OSM       C13            29.6425918938       -3.8892943214       21.4608103812  MEMB      56              0.0000000000
      6430        56  OSM       H13A           28.9124636196       -4.6212902316       21.7730514058  MEMB      56              0.0000000000
      6431        56  OSM       H13B           30.6746954204       -4.2026053612       21.4060528691  MEMB      56              0.0000000000
      6432        56  OSM       H13C           29.4168853195       -3.5497194092       20.4607376602  MEMB      56              0.0000000000
      6433        56  OSM       C12            29.8857179278       -1.3757037459       21.5796389691  MEMB      56              0.0000000000
      6434        56  OSM       H12A           29.6438343705       -0.5736625934       22.2612710173  MEMB      56              0.0000000000
      6435        56  OSM       H12B           29.3088062960       -1.1543736955       20.6938703729  MEMB      56              0.0000000000
      6436        56  OSM       C11            31.4735355276       -1.1764060869       21.1636314036  MEMB      56              0.0000000000
      6437        56  OSM       H11A           32.1366944972       -1.0280834262       22.0425748989  MEMB      56              0.0000000000
      6438        56  OSM       H11B           31.3982205166       -0.1830508295       20.6718042617  MEMB      56              0.0000000000
      6439        56  OSM       P              33.3839294690       -2.0572263152       19.6685641922  MEMB      56              0.0000000000
      6440        56  OSM       O13            33.6346931354       -0.6182878123       19.7469499432  MEMB      56              0.0000000000
      6441        56  OSM       O14            34.3823876641       -2.8553327947       20.4427919425  MEMB      56              0.0000000000
      6442        56  OSM       O11            33.4648926029       -2.5327309686       18.2109497560  MEMB      56              0.0000000000
      6443        56  OSM       O12            31.9005342387       -2.2503284577       20.2075267589  MEMB      56              0.0000000000
      6444        56  OSM       C1S            32.5664065111       -1.9633758348       17.2585493181  MEMB      56              0.0000000000
      6445        56  OSM       H1S            32.6862466294       -0.8591656063       17.2846078065  MEMB      56              0.0000000000
      6446        56  OSM       H1T            31.5193820623       -2.1566117080       17.5759148175  MEMB      56              0.0000000000
      6447        56  OSM       NF             32.4834919029       -1.5071088219       14.7599244452  MEMB      56              0.0000000000
      6448        56  OSM       HNF            31.7921308141       -1.7816258772       14.0960955018  MEMB      56              0.0000000000
      6449        56  OSM       C2S            32.9019737902       -2.4338868320       15.8067843894  MEMB      56              0.0000000000
      6450        56  OSM       H2S            33.9947741514       -2.5343312502       15.6335232792  MEMB      56              0.0000000000
      6451        56  OSM       C3S            32.3045877438       -3.8500017678       15.6230025267  MEMB      56              0.0000000000
      6452        56  OSM       H3S            31.2313159571       -3.9007514754       15.9055501903  MEMB      56              0.0000000000
      6453        56  OSM       O3             32.9792831966       -4.7660837005       16.5154232210  MEMB      56              0.0000000000
      6454        56  OSM       HO3            33.7078028749       -4.3948159670       17.0184334034  MEMB      56              0.0000000000
      6455        56  OSM       C4S            32.6701761478       -4.4237236958       14.2567177563  MEMB      56              0.0000000000
      6456        56  OSM       H4S            33.7141734745       -4.7424369678       14.1207339075  MEMB      56              0.0000000000
      6457        56  OSM       C5S            31.7302162399       -4.7426840891       13.3325924758  MEMB      56              0.0000000000
      6458        56  OSM       H5S            30.6929450564       -4.4595025116       13.5647062410  MEMB      56              0.0000000000
      6459        56  OSM       C6S            32.0232199687       -5.3869186744       11.9940817271  MEMB      56              0.0000000000
      6460        56  OSM       H6S            31.7088433935       -6.4484310555       12.0872476658  MEMB      56              0.0000000000
      6461        56  OSM       H6T            33.0794800708       -5.3388291578       11.6530203753  MEMB      56              0.0000000000
      6462        56  OSM       C7S            31.3478282626       -4.6541651076       10.8131066205  MEMB      56              0.0000000000
      6463        56  OSM       H7S            30.2676382687       -4.5379784185       11.0455097918  MEMB      56              0.0000000000
      6464        56  OSM       H7T            31.3831142784       -5.4351258432       10.0236909181  MEMB      56              0.0000000000
      6465        56  OSM       C8S            31.9366120763       -3.2924933423       10.5228565043  MEMB      56              0.0000000000
      6466        56  OSM       H8S            32.6839748350       -2.9144508541       11.2528244522  MEMB      56              0.0000000000
      6467        56  OSM       H8T            31.1946661378       -2.4702512706       10.4347930725  MEMB      56              0.0000000000
      6468        56  OSM       C9S            32.5184758834       -3.4163432774        9.0901036131  MEMB      56              0.0000000000
      6469        56  OSM       H9S            31.7132760746       -3.7122594220        8.3841231005  MEMB      56              0.0000000000
      6470        56  OSM       H9T            33.2476955682       -4.2531092611        9.0412940151  MEMB      56              0.0000000000
      6471        56  OSM       C10S           33.2775230880       -2.1713108959        8.7043606456  MEMB      56              0.0000000000
      6472        56  OSM       H10S           34.2479686395       -2.0579256747        9.2332281205  MEMB      56              0.0000000000
      6473        56  OSM       H10T           32.7622561431       -1.2891561040        9.1409653154  MEMB      56              0.0000000000
      6474        56  OSM       C11S           33.3329592481       -1.8931596621        7.1696770841  MEMB      56              0.0000000000
      6475        56  OSM       H11S           32.3871656894       -1.5387121680        6.7068999071  MEMB      56              0.0000000000
      6476        56  OSM       H11T           33.7870653725       -2.8191199304        6.7565111250  MEMB      56              0.0000000000
      6477        56  OSM       C12S           34.1910023807       -0.6681410880        6.8111315485  MEMB      56              0.0000000000
      6478        56  OSM       H12S           35.1747997389       -0.6809600832        7.3271740398  MEMB      56              0.0000000000
      6479        56  OSM       H12T           33.6821294851        0.2608765864        7.1462359180  MEMB      56              0.0000000000
      6480        56  OSM       C13S           34.3820162726       -0.4789920293        5.3645806673  MEMB      56              0.0000000000
      6481        56  OSM       H13S           35.2593093536        0.1884806179        5.2261678400  MEMB      56              0.0000000000
      6482        56  OSM       H13T           33.4754084174       -0.0324554261        4.9030739523  MEMB      56              0.0000000000
      6483        56  OSM       C14S           34.7555398504       -1.7420125037        4.4446038759  MEMB      56              0.0000000000
      6484        56  OSM       H14S           33.9668320239       -2.5156858356        4.5616117960  MEMB      56              0.0000000000
      6485        56  OSM       H14T           35.5996889263       -2.3171152781        4.8816283856  MEMB      56              0.0000000000
      6486        56  OSM       C15S           34.8156486702       -1.5725988255        2.9457467894  MEMB      56              0.0000000000
      6487        56  OSM       H15S           35.7791378474       -1.0491731760        2.7667628100  MEMB      56              0.0000000000
      6488        56  OSM       H15T           33.9741248954       -0.8921299548        2.6945076203  MEMB      56              0.0000000000
      6489        56  OSM       C16S           34.7686547197       -2.9578524187        2.2198483074  MEMB      56              0.0000000000
      6490        56  OSM       H16S           34.3506328857       -3.6830148204        2.9504090959  MEMB      56              0.0000000000
      6491        56  OSM       H16T           35.7904114562       -3.3228011142        1.9807951438  MEMB      56              0.0000000000
      6492        56  OSM       C17S           34.0985723486       -2.8687277361        0.8401320639  MEMB      56              0.0000000000
      6493        56  OSM       H17S           33.0196260612       -2.6628823445        1.0069362605  MEMB      56              0.0000000000
      6494        56  OSM       H17T           34.2093247479       -3.8729294105        0.3779273822  MEMB      56              0.0000000000
      6495        56  OSM       C18S           34.5052189256       -1.9343337787       -0.2254487176  MEMB      56              0.0000000000
      6496        56  OSM       H18S           35.5952375504       -1.7365482603       -0.3094797443  MEMB      56              0.0000000000
      6497        56  OSM       H18T           33.9042298692       -1.0041856320       -0.1362432621  MEMB      56              0.0000000000
      6498        56  OSM       H18U           34.1519778739       -2.3957035209       -1.1723814290  MEMB      56              0.0000000000
      6499        56  OSM       C1F            33.0772687589       -0.2859751611       14.5460420379  MEMB      56              0.0000000000
      6500        56  OSM       OF             34.1681189570       -0.0778337622       15.0728768175  MEMB      56              0.0000000000
      6501        56  OSM       C2F            32.4055422734        0.7517439620       13.5861866876  MEMB      56              0.0000000000
      6502        56  OSM       H2F            33.1520639295        1.2435672637       12.9265378680  MEMB      56              0.0000000000
      6503        56  OSM       H2G            32.0478865061        1.5551966519       14.2650585533  MEMB      56              0.0000000000
      6504        56  OSM       C3F            31.3134833408        0.2606100567       12.6149993247  MEMB      56              0.0000000000
      6505        56  OSM       H3F            30.5399650743       -0.2691504764       13.2111067644  MEMB      56              0.0000000000
      6506        56  OSM       H3G            31.7026255437       -0.5308951811       11.9394189908  MEMB      56              0.0000000000
      6507        56  OSM       C4F            30.5567644896        1.3014504088       11.7865678494  MEMB      56              0.0000000000
      6508        56  OSM       H4F            31.0976294011        1.8746804053       11.0035007678  MEMB      56              0.0000000000
      6509        56  OSM       H4G            30.4032311139        2.0326910348       12.6087815869  MEMB      56              0.0000000000
      6510        56  OSM       C5F            29.1612253867        0.9512979591       11.3011676806  MEMB      56              0.0000000000
      6511        56  OSM       H5F            28.6578198521        1.8590987216       10.9051858414  MEMB      56              0.0000000000
      6512        56  OSM       H5G            28.5743599701        0.5555108256       12.1574745571  MEMB      56              0.0000000000
      6513        56  OSM       C6F            29.1572201455       -0.1823426650       10.2193231261  MEMB      56              0.0000000000
      6514        56  OSM       H6F            29.3199591805       -1.2024780547       10.6281760761  MEMB      56              0.0000000000
      6515        56  OSM       H6G            29.7414899687        0.1575196715        9.3375954647  MEMB      56              0.0000000000
      6516        56  OSM       C7F            27.7163800675       -0.3857815047        9.6735617474  MEMB      56              0.0000000000
      6517        56  OSM       H7F            27.4647342949        0.6337048838        9.3107351857  MEMB      56              0.0000000000
      6518        56  OSM       H7G            26.9226184344       -0.6532535069       10.4034394377  MEMB      56              0.0000000000
      6519        56  OSM       C8F            27.4973918446       -1.4079109894        8.5093478918  MEMB      56              0.0000000000
      6520        56  OSM       H8F            26.4885826842       -1.1642097944        8.1128191026  MEMB      56              0.0000000000
      6521        56  OSM       H8G            27.5828222286       -2.4257477457        8.9464185468  MEMB      56              0.0000000000
      6522        56  OSM       C9F            28.5429405390       -1.3271610614        7.4453404994  MEMB      56              0.0000000000
      6523        56  OSM       H9F            29.5650142944       -1.6384653022        7.7069802012  MEMB      56              0.0000000000
      6524        56  OSM       C10F           28.3565913606       -0.9912792232        6.1166585470  MEMB      56              0.0000000000
      6525        56  OSM       H10F           29.2576887723       -1.0698158750        5.4906747703  MEMB      56              0.0000000000
      6526        56  OSM       C11F           27.0774055019       -0.5646192677        5.5285595646  MEMB      56              0.0000000000
      6527        56  OSM       H11F           27.3160507449       -0.0627372385        4.5665386772  MEMB      56              0.0000000000
      6528        56  OSM       H11G           26.5265066603        0.1737360900        6.1495770032  MEMB      56              0.0000000000
      6529        56  OSM       C12F           26.1441939486       -1.7555401197        5.1788216925  MEMB      56              0.0000000000
      6530        56  OSM       H12F           25.2500844887       -1.3088935594        4.6936448898  MEMB      56              0.0000000000
      6531        56  OSM       H12G           25.7900186355       -2.2658134929        6.0999636704  MEMB      56              0.0000000000
      6532        56  OSM       C13F           26.6747615991       -2.8117288642        4.1679041875  MEMB      56              0.0000000000
      6533        56  OSM       H13F           25.8498618121       -3.2856464695        3.5940896359  MEMB      56              0.0000000000
      6534        56  OSM       H13G           27.3282804926       -3.5388309068        4.6956900462  MEMB      56              0.0000000000
      6535        56  OSM       C14F           27.6964023047       -2.2179420779        3.0922681112  MEMB      56              0.0000000000
      6536        56  OSM       H14F           28.6476488262       -2.0152459775        3.6292662777  MEMB      56              0.0000000000
      6537        56  OSM       H14G           27.2848993478       -1.3129364022        2.5963338667  MEMB      56              0.0000000000
      6538        56  OSM       C15F           27.9996235535       -3.1974421742        1.8921962490  MEMB      56              0.0000000000
      6539        56  OSM       H15F           28.7326040711       -2.7183680162        1.2084209580  MEMB      56              0.0000000000
      6540        56  OSM       H15G           27.1045207258       -3.4383555485        1.2797648376  MEMB      56              0.0000000000
      6541        56  OSM       C16F           28.5740034291       -4.5960596356        2.3115038199  MEMB      56              0.0000000000
      6542        56  OSM       H16F           28.8497930379       -5.1915426901        1.4150327779  MEMB      56              0.0000000000
      6543        56  OSM       H16G           27.6972986570       -5.1395564154        2.7242038284  MEMB      56              0.0000000000
      6544        56  OSM       C17F           29.7894652585       -4.5725773282        3.2732114769  MEMB      56              0.0000000000
      6545        56  OSM       H17F           30.0793672727       -5.5348120425        3.7469008367  MEMB      56              0.0000000000
      6546        56  OSM       H17G           29.6348895310       -4.0090083013        4.2181012204  MEMB      56              0.0000000000
      6547        56  OSM       C18F           31.0784646005       -3.9551205829        2.7082053124  MEMB      56              0.0000000000
      6548        56  OSM       H18F           31.8359923518       -4.0242974035        3.5179503865  MEMB      56              0.0000000000
      6549        56  OSM       H18G           31.0129600002       -2.8714398545        2.4722679894  MEMB      56              0.0000000000
      6550        56  OSM       H18H           31.5353344928       -4.4857967154        1.8456668397  MEMB      56              0.0000000000
      6551        57  SAPC      N              27.6596717098      -18.1583889351       21.8612285982  MEMB      57              0.0000000000
      6552        57  SAPC      C12            27.6836155789      -18.7604358121       20.5078132094  MEMB      57              0.0000000000
      6553        57  SAPC      H12A           26.7757920652      -19.3361458399       20.4038212180  MEMB      57              0.0000000000
      6554        57  SAPC      H12B           28.4653004334      -19.4824780133       20.3233570039  MEMB      57              0.0000000000
      6555        57  SAPC      C13            28.7135036139      -17.1577139021       21.9330992550  MEMB      57              0.0000000000
      6556        57  SAPC      H13A           29.7094315183      -17.5652300856       21.8411298424  MEMB      57              0.0000000000
      6557        57  SAPC      H13B           28.4610859954      -16.5588292955       21.0705319115  MEMB      57              0.0000000000
      6558        57  SAPC      H13C           28.5643232870      -16.6005458561       22.8461759690  MEMB      57              0.0000000000
      6559        57  SAPC      C14            26.3411765456      -17.4909324821       22.1490318548  MEMB      57              0.0000000000
      6560        57  SAPC      H14A           26.4328005808      -17.1245798061       23.1608575387  MEMB      57              0.0000000000
      6561        57  SAPC      H14B           26.2272996198      -16.7177502477       21.4036318707  MEMB      57              0.0000000000
      6562        57  SAPC      H14C           25.5378334231      -18.2127475167       22.1538075829  MEMB      57              0.0000000000
      6563        57  SAPC      C15            27.8845361658      -19.3237138996       22.8566803050  MEMB      57              0.0000000000
      6564        57  SAPC      H15A           27.8803974687      -18.8910421161       23.8462144306  MEMB      57              0.0000000000
      6565        57  SAPC      H15B           27.0930110246      -20.0568781760       22.8081208002  MEMB      57              0.0000000000
      6566        57  SAPC      H15C           28.8123826513      -19.8303695191       22.6357705674  MEMB      57              0.0000000000
      6567        57  SAPC      C11            27.5709674547      -17.7594877092       19.2966386185  MEMB      57              0.0000000000
      6568        57  SAPC      H11A           27.6778139399      -18.4864313703       18.4632973589  MEMB      57              0.0000000000
      6569        57  SAPC      H11B           28.4104263996      -17.0379329489       19.3914453779  MEMB      57              0.0000000000
      6570        57  SAPC      P              25.5190860298      -16.6458086619       18.2683360020  MEMB      57              0.0000000000
      6571        57  SAPC      O13            25.0800528619      -17.8040650954       17.5077764989  MEMB      57              0.0000000000
      6572        57  SAPC      O14            24.4742683930      -15.6794637895       18.6581210078  MEMB      57              0.0000000000
      6573        57  SAPC      O12            26.3658276722      -17.1081172309       19.5084945263  MEMB      57              0.0000000000
      6574        57  SAPC      O11            26.6327785770      -15.8785541849       17.4527801259  MEMB      57              0.0000000000
      6575        57  SAPC      C1             26.2772249067      -15.2465935240       16.2491142450  MEMB      57              0.0000000000
      6576        57  SAPC      HA             25.3885152884      -14.5945592973       16.3882810343  MEMB      57              0.0000000000
      6577        57  SAPC      HB             27.1032675355      -14.6154676156       15.8571258998  MEMB      57              0.0000000000
      6578        57  SAPC      C2             26.0545365556      -16.2422122929       15.0704263885  MEMB      57              0.0000000000
      6579        57  SAPC      HS             25.0741589819      -16.7631961322       15.1123390861  MEMB      57              0.0000000000
      6580        57  SAPC      O21            27.2116976512      -17.1447398489       15.0030748897  MEMB      57              0.0000000000
      6581        57  SAPC      C21            26.8988271952      -18.4534136653       14.5576654912  MEMB      57              0.0000000000
      6582        57  SAPC      O22            25.7962583670      -18.8835845721       14.6097734717  MEMB      57              0.0000000000
      6583        57  SAPC      C22            28.1920607161      -19.2588067347       14.2434773964  MEMB      57              0.0000000000
      6584        57  SAPC      H2R            29.0439186800      -18.6004012707       13.9693220877  MEMB      57              0.0000000000
      6585        57  SAPC      H2S            28.4442296285      -19.7994858855       15.1807066134  MEMB      57              0.0000000000
      6586        57  SAPC      C3             26.0523194084      -15.4951977178       13.5967867291  MEMB      57              0.0000000000
      6587        57  SAPC      HX             25.1517386261      -14.8498059122       13.5146608436  MEMB      57              0.0000000000
      6588        57  SAPC      HY             26.1965930137      -16.2908691558       12.8349382804  MEMB      57              0.0000000000
      6589        57  SAPC      O31            27.1996134625      -14.6378028276       13.6577405786  MEMB      57              0.0000000000
      6590        57  SAPC      C31            27.2152102941      -13.5999704146       12.7401919352  MEMB      57              0.0000000000
      6591        57  SAPC      O32            26.2826094045      -13.3633570958       11.9977282989  MEMB      57              0.0000000000
      6592        57  SAPC      C32            28.5212651965      -12.7851187968       12.8945930270  MEMB      57              0.0000000000
      6593        57  SAPC      H2X            28.9358447166      -12.9257267459       13.9157075314  MEMB      57              0.0000000000
      6594        57  SAPC      H2Y            28.3198849497      -11.6960435068       12.8069420274  MEMB      57              0.0000000000
      6595        57  SAPC      C23            27.9136518632      -20.3642241165       13.2033679506  MEMB      57              0.0000000000
      6596        57  SAPC      H3R            27.6574717068      -19.8124320481       12.2737344416  MEMB      57              0.0000000000
      6597        57  SAPC      H3S            27.0438495194      -21.0154711914       13.4349755203  MEMB      57              0.0000000000
      6598        57  SAPC      C24            29.1198819844      -21.2135901959       12.8057597132  MEMB      57              0.0000000000
      6599        57  SAPC      H4R            28.6881902227      -21.9422843259       12.0867545652  MEMB      57              0.0000000000
      6600        57  SAPC      H4S            29.3032443947      -21.8737188263       13.6803620157  MEMB      57              0.0000000000
      6601        57  SAPC      C25            30.3343247732      -20.5176221404       12.3190317385  MEMB      57              0.0000000000
      6602        57  SAPC      H5R            31.1615275942      -20.5626176698       13.0427101931  MEMB      57              0.0000000000
      6603        57  SAPC      C26            30.4547795940      -19.8453529402       11.1840936152  MEMB      57              0.0000000000
      6604        57  SAPC      H6R            31.4395040095      -19.3937103673       10.9934707031  MEMB      57              0.0000000000
      6605        57  SAPC      C27            29.4157378333      -19.6462499650       10.1400168562  MEMB      57              0.0000000000
      6606        57  SAPC      H7R            28.6522305929      -20.4522990390       10.1807923912  MEMB      57              0.0000000000
      6607        57  SAPC      H7S            29.9386706981      -19.7903800094        9.1704351203  MEMB      57              0.0000000000
      6608        57  SAPC      C28            28.6561139902      -18.3752436302       10.1250563962  MEMB      57              0.0000000000
      6609        57  SAPC      H8R            28.6306080057      -17.7530380539       11.0318143735  MEMB      57              0.0000000000
      6610        57  SAPC      C29            27.9885017473      -17.8966302430        9.0179917414  MEMB      57              0.0000000000
      6611        57  SAPC      H9R            27.4605316073      -16.9318395541        8.9973428405  MEMB      57              0.0000000000
      6612        57  SAPC      C210           27.9752238982      -18.6071740525        7.6417598187  MEMB      57              0.0000000000
      6613        57  SAPC      H10R           28.8309451530      -19.2659068235        7.3807358691  MEMB      57              0.0000000000
      6614        57  SAPC      H10S           27.9190101204      -17.9566335591        6.7428950410  MEMB      57              0.0000000000
      6615        57  SAPC      C211           26.6753837916      -19.4645213852        7.6754222790  MEMB      57              0.0000000000
      6616        57  SAPC      H11R           26.8348521832      -20.5377684244        7.4945613285  MEMB      57              0.0000000000
      6617        57  SAPC      C212           25.3774373223      -19.0413267241        7.7713347110  MEMB      57              0.0000000000
      6618        57  SAPC      H12R           24.5994727082      -19.8174091912        7.7216648165  MEMB      57              0.0000000000
      6619        57  SAPC      C213           24.9292362040      -17.5660755658        7.9048669598  MEMB      57              0.0000000000
      6620        57  SAPC      H13R           25.3128136072      -17.1334810282        8.8535773252  MEMB      57              0.0000000000
      6621        57  SAPC      H13S           23.8191114777      -17.5717211771        7.9485934871  MEMB      57              0.0000000000
      6622        57  SAPC      C214           25.2950590248      -16.5517853075        6.8540987391  MEMB      57              0.0000000000
      6623        57  SAPC      H14R           25.9305934268      -15.7513733162        7.2608379805  MEMB      57              0.0000000000
      6624        57  SAPC      C215           24.9958779413      -16.6030625047        5.5723891184  MEMB      57              0.0000000000
      6625        57  SAPC      H15R           25.3536601069      -15.7380853773        4.9946287359  MEMB      57              0.0000000000
      6626        57  SAPC      C216           24.2238502581      -17.6939273884        4.9193092257  MEMB      57              0.0000000000
      6627        57  SAPC      H16R           23.3157999611      -17.9427137651        5.5091154350  MEMB      57              0.0000000000
      6628        57  SAPC      H16S           24.8261223328      -18.6263969736        4.8735947335  MEMB      57              0.0000000000
      6629        57  SAPC      C217           23.9783203519      -17.5031497183        3.4010133439  MEMB      57              0.0000000000
      6630        57  SAPC      H17R           24.9235553948      -17.5323601853        2.8179203548  MEMB      57              0.0000000000
      6631        57  SAPC      H17S           23.5080042224      -16.5149249306        3.2098699911  MEMB      57              0.0000000000
      6632        57  SAPC      C218           23.0330098457      -18.5223436029        2.8628620301  MEMB      57              0.0000000000
      6633        57  SAPC      H18R           22.0369095640      -18.0303278659        2.8679685198  MEMB      57              0.0000000000
      6634        57  SAPC      H18S           23.0209513680      -19.3803372676        3.5685684270  MEMB      57              0.0000000000
      6635        57  SAPC      C219           23.3579157792      -18.9797583159        1.3982131048  MEMB      57              0.0000000000
      6636        57  SAPC      H19R           24.4159404112      -19.2409453411        1.1821447624  MEMB      57              0.0000000000
      6637        57  SAPC      H19S           23.1540763412      -18.0951633138        0.7576974131  MEMB      57              0.0000000000
      6638        57  SAPC      C220           22.3864430776      -20.0793062818        0.7641710484  MEMB      57              0.0000000000
      6639        57  SAPC      H20R           22.7542976214      -20.2522856808       -0.2697917495  MEMB      57              0.0000000000
      6640        57  SAPC      H20S           21.3640314331      -19.6510443719        0.8389183613  MEMB      57              0.0000000000
      6641        57  SAPC      H20T           22.5161322399      -21.0727722735        1.2443038867  MEMB      57              0.0000000000
      6642        57  SAPC      C33            29.4426665481      -13.0811723312       11.7316359077  MEMB      57              0.0000000000
      6643        57  SAPC      H3X            30.1423461485      -12.2209984452       11.6618476318  MEMB      57              0.0000000000
      6644        57  SAPC      H3Y            28.9260392811      -13.0903128374       10.7481052100  MEMB      57              0.0000000000
      6645        57  SAPC      C34            30.1095357235      -14.4072645672       11.8944475004  MEMB      57              0.0000000000
      6646        57  SAPC      H4X            29.3904228504      -15.2200954530       11.6567435713  MEMB      57              0.0000000000
      6647        57  SAPC      H4Y            30.2584302646      -14.5684778742       12.9835577578  MEMB      57              0.0000000000
      6648        57  SAPC      C35            31.4431988445      -14.6271268362       11.2388839379  MEMB      57              0.0000000000
      6649        57  SAPC      H5X            31.8081572816      -15.6226872287       11.5705249039  MEMB      57              0.0000000000
      6650        57  SAPC      H5Y            32.1235087163      -13.8460768265       11.6407046521  MEMB      57              0.0000000000
      6651        57  SAPC      C36            31.4822008573      -14.6117112669        9.6684517930  MEMB      57              0.0000000000
      6652        57  SAPC      H6X            32.5617369471      -14.5274192346        9.4198197218  MEMB      57              0.0000000000
      6653        57  SAPC      H6Y            31.0617556412      -13.6619580103        9.2740967360  MEMB      57              0.0000000000
      6654        57  SAPC      C37            30.8346116471      -15.8415768564        8.9360979618  MEMB      57              0.0000000000
      6655        57  SAPC      H7X            29.7725076841      -15.8502910084        9.2619510250  MEMB      57              0.0000000000
      6656        57  SAPC      H7Y            31.3408618396      -16.7573628584        9.3094179627  MEMB      57              0.0000000000
      6657        57  SAPC      C38            30.9074320342      -15.8536815301        7.4476379680  MEMB      57              0.0000000000
      6658        57  SAPC      H8X            30.5493189362      -16.8497153506        7.1100098497  MEMB      57              0.0000000000
      6659        57  SAPC      H8Y            31.9527045268      -15.6959139763        7.1058247282  MEMB      57              0.0000000000
      6660        57  SAPC      C39            30.0341285802      -14.7259280034        6.8045194403  MEMB      57              0.0000000000
      6661        57  SAPC      H9X            30.4749687281      -13.7090655098        6.8817937659  MEMB      57              0.0000000000
      6662        57  SAPC      H9Y            29.0660677168      -14.6934058555        7.3486897017  MEMB      57              0.0000000000
      6663        57  SAPC      C310           29.7131025380      -15.1161530848        5.3265891219  MEMB      57              0.0000000000
      6664        57  SAPC      H10X           28.9998698745      -15.9657262315        5.3886015360  MEMB      57              0.0000000000
      6665        57  SAPC      H10Y           30.6552025232      -15.4608231327        4.8491250417  MEMB      57              0.0000000000
      6666        57  SAPC      C311           29.2271067590      -13.9567895826        4.3923210441  MEMB      57              0.0000000000
      6667        57  SAPC      H11X           29.9722603467      -13.1377761499        4.4833365541  MEMB      57              0.0000000000
      6668        57  SAPC      H11Y           28.2328301459      -13.5340281364        4.6511795475  MEMB      57              0.0000000000
      6669        57  SAPC      C312           29.1531468316      -14.4887445748        2.9274057199  MEMB      57              0.0000000000
      6670        57  SAPC      H12X           30.1369606129      -14.8600707115        2.5688679762  MEMB      57              0.0000000000
      6671        57  SAPC      H12Y           28.9609991584      -13.6454741673        2.2300569393  MEMB      57              0.0000000000
      6672        57  SAPC      C313           28.0969082131      -15.5510302895        2.6569416937  MEMB      57              0.0000000000
      6673        57  SAPC      H13X           27.1383647110      -15.0253801286        2.8549497381  MEMB      57              0.0000000000
      6674        57  SAPC      H13Y           28.0506892467      -16.4317659418        3.3325822491  MEMB      57              0.0000000000
      6675        57  SAPC      C314           28.0666110121      -16.0948389611        1.2071748855  MEMB      57              0.0000000000
      6676        57  SAPC      H14X           27.1426847863      -16.6939988401        1.0599044445  MEMB      57              0.0000000000
      6677        57  SAPC      H14Y           28.8771635466      -16.7945919400        0.9110817388  MEMB      57              0.0000000000
      6678        57  SAPC      C315           27.9419384979      -15.0166545106        0.0817514730  MEMB      57              0.0000000000
      6679        57  SAPC      H15X           27.9583581258      -15.5251534395       -0.9059137177  MEMB      57              0.0000000000
      6680        57  SAPC      H15Y           28.7896956514      -14.2997458697        0.0408718718  MEMB      57              0.0000000000
      6681        57  SAPC      C316           26.6651478595      -14.1055511275        0.1091183103  MEMB      57              0.0000000000
      6682        57  SAPC      H16X           26.5746892137      -13.5718495813        1.0793241744  MEMB      57              0.0000000000
      6683        57  SAPC      H16Y           25.8590398141      -14.8692033036        0.0724277656  MEMB      57              0.0000000000
      6684        57  SAPC      C317           26.4097404439      -13.2359016369       -1.0832747345  MEMB      57              0.0000000000
      6685        57  SAPC      H17X           26.5935431078      -13.9381518759       -1.9243360130  MEMB      57              0.0000000000
      6686        57  SAPC      H17Y           27.1191092356      -12.3899438746       -1.2076622736  MEMB      57              0.0000000000
      6687        57  SAPC      C318           24.9645730960      -12.6121015172       -1.1187054006  MEMB      57              0.0000000000
      6688        57  SAPC      H18X           24.7743137816      -11.8445794223       -0.3383013107  MEMB      57              0.0000000000
      6689        57  SAPC      H18Y           24.2788298369      -13.4698640235       -0.9504182658  MEMB      57              0.0000000000
      6690        57  SAPC      H18Z           24.6802392789      -12.0857541749       -2.0548857398  MEMB      57              0.0000000000
      6691        58  CHL1      C3             16.8304105602      -27.1615828151       17.3433850000  MEMB      58              0.0000000000
      6692        58  CHL1      H3             15.8198288132      -27.2878895274       16.8994250000  MEMB      58              0.0000000000
      6693        58  CHL1      O3             16.4223962398      -27.3204137849       18.6566150000  MEMB      58              0.0000000000
      6694        58  CHL1      H3'            15.5847574064      -26.8801200488       18.8181750000  MEMB      58              0.0000000000
      6695        58  CHL1      C4             17.8371538749      -28.1874643605       16.7512850000  MEMB      58              0.0000000000
      6696        58  CHL1      H4A            18.8186103380      -27.9707630575       17.2246750000  MEMB      58              0.0000000000
      6697        58  CHL1      H4B            17.4336015439      -29.1847657946       17.0285150000  MEMB      58              0.0000000000
      6698        58  CHL1      C5             17.8437678479      -27.9615335457       15.2299950000  MEMB      58              0.0000000000
      6699        58  CHL1      C6             17.4650269137      -28.8473831652       14.3718750000  MEMB      58              0.0000000000
      6700        58  CHL1      H6             17.2273947426      -29.8575252420       14.7367450000  MEMB      58              0.0000000000
      6701        58  CHL1      C7             17.2688705518      -28.6201234763       12.8806750000  MEMB      58              0.0000000000
      6702        58  CHL1      H7A            17.6036248892      -29.3871032636       12.1499150000  MEMB      58              0.0000000000
      6703        58  CHL1      H7B            16.2080276027      -28.3365560688       12.7117650000  MEMB      58              0.0000000000
      6704        58  CHL1      C8             18.0707126599      -27.3995501378       12.4197450000  MEMB      58              0.0000000000
      6705        58  CHL1      H8             19.1199516485      -27.7203320989       12.2450750000  MEMB      58              0.0000000000
      6706        58  CHL1      C14            17.5083715138      -26.9573977308       11.0629750000  MEMB      58              0.0000000000
      6707        58  CHL1      H14            16.4865969541      -26.5564291421       11.2347850000  MEMB      58              0.0000000000
      6708        58  CHL1      C15            17.3972522304      -28.0104669153        9.9698150000  MEMB      58              0.0000000000
      6709        58  CHL1      H15A           18.4027796509      -28.4825994596        9.9514950000  MEMB      58              0.0000000000
      6710        58  CHL1      H15B           16.5182364142      -28.6842772757       10.0571750000  MEMB      58              0.0000000000
      6711        58  CHL1      C16            17.1061963090      -27.2036158234        8.7005650000  MEMB      58              0.0000000000
      6712        58  CHL1      H16A           17.8097414268      -27.4598050005        7.8797650000  MEMB      58              0.0000000000
      6713        58  CHL1      H16B           16.0452589454      -27.2570742001        8.3751750000  MEMB      58              0.0000000000
      6714        58  CHL1      C17            17.3696505630      -25.6963637567        9.0584850000  MEMB      58              0.0000000000
      6715        58  CHL1      H17            16.3767448461      -25.3527276711        9.4195650000  MEMB      58              0.0000000000
      6716        58  CHL1      C13            18.2060635926      -25.8113779770       10.3163750000  MEMB      58              0.0000000000
      6717        58  CHL1      C18            19.6808647885      -26.1272698767        9.8440050000  MEMB      58              0.0000000000
      6718        58  CHL1      H18A           20.2075182704      -26.3973461891       10.7842250000  MEMB      58              0.0000000000
      6719        58  CHL1      H18B           19.8253734831      -27.0158650788        9.1929850000  MEMB      58              0.0000000000
      6720        58  CHL1      H18C           20.0798875053      -25.1669765376        9.4529250000  MEMB      58              0.0000000000
      6721        58  CHL1      C12            18.1708612601      -24.5594928042       11.2526950000  MEMB      58              0.0000000000
      6722        58  CHL1      H12A           18.9382732996      -23.8152360845       10.9502350000  MEMB      58              0.0000000000
      6723        58  CHL1      H12B           17.1346542678      -24.1587498052       11.2530850000  MEMB      58              0.0000000000
      6724        58  CHL1      C11            18.6980929874      -25.0067450948       12.6771450000  MEMB      58              0.0000000000
      6725        58  CHL1      H11A           19.7619342482      -25.2921961495       12.5319650000  MEMB      58              0.0000000000
      6726        58  CHL1      H11B           18.6251795265      -24.1266652727       13.3512750000  MEMB      58              0.0000000000
      6727        58  CHL1      C9             17.9950693326      -26.2397749451       13.3495550000  MEMB      58              0.0000000000
      6728        58  CHL1      H9             16.9086609894      -26.0089970510       13.3776550000  MEMB      58              0.0000000000
      6729        58  CHL1      C10            18.3380627700      -26.5494904539       14.8100350000  MEMB      58              0.0000000000
      6730        58  CHL1      C19            19.8608603321      -26.5395631355       14.9597350000  MEMB      58              0.0000000000
      6731        58  CHL1      H19A           20.2685605634      -27.3558647228       14.3258950000  MEMB      58              0.0000000000
      6732        58  CHL1      H19B           20.2804541197      -25.6348866422       14.4700250000  MEMB      58              0.0000000000
      6733        58  CHL1      H19C           20.2126188467      -26.4864146090       16.0122350000  MEMB      58              0.0000000000
      6734        58  CHL1      C1             17.6439405743      -25.3844679065       15.7142250000  MEMB      58              0.0000000000
      6735        58  CHL1      H1A            18.2253943656      -24.4531163839       15.5444650000  MEMB      58              0.0000000000
      6736        58  CHL1      H1B            16.6475569286      -25.1521685467       15.2811150000  MEMB      58              0.0000000000
      6737        58  CHL1      C2             17.4463646485      -25.6805184644       17.2195950000  MEMB      58              0.0000000000
      6738        58  CHL1      H2A            16.7170207116      -24.9247493844       17.5817850000  MEMB      58              0.0000000000
      6739        58  CHL1      H2B            18.3749492316      -25.7025139676       17.8291550000  MEMB      58              0.0000000000
      6740        58  CHL1      C20            17.7674289154      -24.7795732515        7.8471250000  MEMB      58              0.0000000000
      6741        58  CHL1      H20            18.8259579732      -24.9838086957        7.5785650000  MEMB      58              0.0000000000
      6742        58  CHL1      C21            17.6703268779      -23.3334775151        8.2020650000  MEMB      58              0.0000000000
      6743        58  CHL1      H21A           17.9917034842      -23.1775173977        9.2540750000  MEMB      58              0.0000000000
      6744        58  CHL1      H21B           16.6426978460      -22.9165291468        8.1353650000  MEMB      58              0.0000000000
      6745        58  CHL1      H21C           18.3463001129      -22.7262687706        7.5627950000  MEMB      58              0.0000000000
      6746        58  CHL1      C22            16.9466500159      -25.2031664679        6.5363750000  MEMB      58              0.0000000000
      6747        58  CHL1      H22A           17.4412482167      -26.1661585802        6.2866850000  MEMB      58              0.0000000000
      6748        58  CHL1      H22B           15.8485587999      -25.3605991071        6.5973550000  MEMB      58              0.0000000000
      6749        58  CHL1      C23            17.0815495819      -24.2496768108        5.3209350000  MEMB      58              0.0000000000
      6750        58  CHL1      H23A           16.8444456498      -23.1963581878        5.5829050000  MEMB      58              0.0000000000
      6751        58  CHL1      H23B           18.1597823638      -24.2666522938        5.0536450000  MEMB      58              0.0000000000
      6752        58  CHL1      C24            16.2491726907      -24.6128646583        4.0147950000  MEMB      58              0.0000000000
      6753        58  CHL1      H24A           16.0452169807      -25.7003730648        4.1150550000  MEMB      58              0.0000000000
      6754        58  CHL1      H24B           15.2001149682      -24.2483932575        3.9841350000  MEMB      58              0.0000000000
      6755        58  CHL1      C25            16.8297556603      -24.2492584013        2.6185550000  MEMB      58              0.0000000000
      6756        58  CHL1      H25            17.9206251397      -24.4444568749        2.6973950000  MEMB      58              0.0000000000
      6757        58  CHL1      C26            16.0725674523      -24.9967420343        1.5016750000  MEMB      58              0.0000000000
      6758        58  CHL1      H26A           14.9964830238      -24.7420322099        1.3944250000  MEMB      58              0.0000000000
      6759        58  CHL1      H26B           16.6256744901      -24.7800230523        0.5628250000  MEMB      58              0.0000000000
      6760        58  CHL1      H26C           16.1565525494      -26.0826984016        1.7206650000  MEMB      58              0.0000000000
      6761        58  CHL1      C27            16.5008987500      -22.7941535203        2.3650550000  MEMB      58              0.0000000000
      6762        58  CHL1      H27A           15.4289306615      -22.7510454883        2.6537450000  MEMB      58              0.0000000000
      6763        58  CHL1      H27B           17.2424399876      -22.2232113807        2.9637850000  MEMB      58              0.0000000000
      6764        58  CHL1      H27C           16.5261438861      -22.5128682670        1.2905450000  MEMB      58              0.0000000000
      6765        59  CHL1      C3            -19.2003389860       24.7663586306       17.3039000000  MEMB      59              0.0000000000
      6766        59  CHL1      H3            -18.4019670089       25.4221010364       16.8953400000  MEMB      59              0.0000000000
      6767        59  CHL1      O3            -19.1925166140       24.6993746960       18.6961000000  MEMB      59              0.0000000000
      6768        59  CHL1      H3'           -18.3069719688       24.4010753509       18.9161800000  MEMB      59              0.0000000000
      6769        59  CHL1      C4            -20.5853591321       25.2696261512       16.8704200000  MEMB      59              0.0000000000
      6770        59  CHL1      H4A           -21.3294242808       24.5524887556       17.2783400000  MEMB      59              0.0000000000
      6771        59  CHL1      H4B           -20.8073752109       26.1993025432       17.4367700000  MEMB      59              0.0000000000
      6772        59  CHL1      C5            -20.7354714420       25.3015998864       15.3954700000  MEMB      59              0.0000000000
      6773        59  CHL1      C6            -20.8699674988       26.4346877103       14.6711200000  MEMB      59              0.0000000000
      6774        59  CHL1      H6            -21.0755271481       27.4002521690       15.1563200000  MEMB      59              0.0000000000
      6775        59  CHL1      C7            -20.7001466662       26.5798688730       13.1963300000  MEMB      59              0.0000000000
      6776        59  CHL1      H7A           -21.2130881567       27.4090510613       12.6637200000  MEMB      59              0.0000000000
      6777        59  CHL1      H7B           -19.6445059847       26.9013794882       13.0676100000  MEMB      59              0.0000000000
      6778        59  CHL1      C8            -20.8840335115       25.2299625813       12.4666000000  MEMB      59              0.0000000000
      6779        59  CHL1      H8            -21.9703681565       25.0206823680       12.5684800000  MEMB      59              0.0000000000
      6780        59  CHL1      C14           -20.5285728955       25.3538024272       10.9828600000  MEMB      59              0.0000000000
      6781        59  CHL1      H14           -19.4543477000       25.6337377282       11.0275700000  MEMB      59              0.0000000000
      6782        59  CHL1      C15           -21.2066061588       26.4479752904       10.2326300000  MEMB      59              0.0000000000
      6783        59  CHL1      H15A          -22.2894463677       26.5113396849       10.4729500000  MEMB      59              0.0000000000
      6784        59  CHL1      H15B          -20.8195921040       27.4838462820       10.3400500000  MEMB      59              0.0000000000
      6785        59  CHL1      C16           -21.0225965423       25.9497791091        8.7843500000  MEMB      59              0.0000000000
      6786        59  CHL1      H16A          -22.0321119890       25.9215027471        8.3213100000  MEMB      59              0.0000000000
      6787        59  CHL1      H16B          -20.3473305824       26.6216168256        8.2125500000  MEMB      59              0.0000000000
      6788        59  CHL1      C17           -20.4321030000       24.4988197777        8.8085500000  MEMB      59              0.0000000000
      6789        59  CHL1      H17           -19.3441635194       24.7173659772        8.7545400000  MEMB      59              0.0000000000
      6790        59  CHL1      C13           -20.7233024721       24.0023783479       10.2141000000  MEMB      59              0.0000000000
      6791        59  CHL1      C18           -22.1980676491       23.3845571234       10.2223400000  MEMB      59              0.0000000000
      6792        59  CHL1      H18A          -22.4513409719       23.3968351760       11.3040100000  MEMB      59              0.0000000000
      6793        59  CHL1      H18B          -22.8792313487       24.0558039613        9.6568800000  MEMB      59              0.0000000000
      6794        59  CHL1      H18C          -22.2210512832       22.3403622246        9.8435900000  MEMB      59              0.0000000000
      6795        59  CHL1      C12           -19.6916436003       23.0732575526       10.9253200000  MEMB      59              0.0000000000
      6796        59  CHL1      H12A          -19.7661996832       22.1781764836       10.2714100000  MEMB      59              0.0000000000
      6797        59  CHL1      H12B          -18.7110088486       23.5786805042       10.7940700000  MEMB      59              0.0000000000
      6798        59  CHL1      C11           -20.0998912960       22.8404565474       12.3895600000  MEMB      59              0.0000000000
      6799        59  CHL1      H11A          -21.1558155873       22.4951794335       12.4001200000  MEMB      59              0.0000000000
      6800        59  CHL1      H11B          -19.4235721695       22.0153415289       12.6995600000  MEMB      59              0.0000000000
      6801        59  CHL1      C9            -20.0775664339       24.1486894598       13.1288500000  MEMB      59              0.0000000000
      6802        59  CHL1      H9            -19.0207781004       24.4911586864       13.1137900000  MEMB      59              0.0000000000
      6803        59  CHL1      C10           -20.3278294757       23.9908812040       14.6555600000  MEMB      59              0.0000000000
      6804        59  CHL1      C19           -21.4610445767       23.0170264782       14.8868700000  MEMB      59              0.0000000000
      6805        59  CHL1      H19A          -22.2541293057       23.0672029258       14.1104500000  MEMB      59              0.0000000000
      6806        59  CHL1      H19B          -21.1765028367       21.9474835066       14.9840200000  MEMB      59              0.0000000000
      6807        59  CHL1      H19C          -21.9857153090       23.2131605597       15.8463300000  MEMB      59              0.0000000000
      6808        59  CHL1      C1            -18.9834634581       23.3989020475       15.2219700000  MEMB      59              0.0000000000
      6809        59  CHL1      H1A           -18.8907826066       22.3437761490       14.8866700000  MEMB      59              0.0000000000
      6810        59  CHL1      H1B           -18.1170344924       23.9553910060       14.8049100000  MEMB      59              0.0000000000
      6811        59  CHL1      C2            -18.9170862545       23.3728353670       16.7074900000  MEMB      59              0.0000000000
      6812        59  CHL1      H2A           -17.9050833404       23.0746453094       17.0557200000  MEMB      59              0.0000000000
      6813        59  CHL1      H2B           -19.6656889967       22.7213927470       17.2070100000  MEMB      59              0.0000000000
      6814        59  CHL1      C20           -20.8840633572       23.6644307526        7.5834400000  MEMB      59              0.0000000000
      6815        59  CHL1      H20           -21.9901510484       23.5635016591        7.6102200000  MEMB      59              0.0000000000
      6816        59  CHL1      C21           -20.4473679520       22.2471263099        7.4909000000  MEMB      59              0.0000000000
      6817        59  CHL1      H21A          -19.3572526934       22.2050526377        7.2807200000  MEMB      59              0.0000000000
      6818        59  CHL1      H21B          -20.8971926820       21.6980495418        6.6362000000  MEMB      59              0.0000000000
      6819        59  CHL1      H21C          -20.4975179514       21.7209722531        8.4681300000  MEMB      59              0.0000000000
      6820        59  CHL1      C22           -20.6336899676       24.3502067544        6.2122900000  MEMB      59              0.0000000000
      6821        59  CHL1      H22A          -21.1035889933       23.6686810691        5.4713200000  MEMB      59              0.0000000000
      6822        59  CHL1      H22B          -21.2519349630       25.2729332015        6.1862600000  MEMB      59              0.0000000000
      6823        59  CHL1      C23           -19.0898067589       24.7143419056        5.9694900000  MEMB      59              0.0000000000
      6824        59  CHL1      H23A          -19.0677205020       25.7573615536        6.3514900000  MEMB      59              0.0000000000
      6825        59  CHL1      H23B          -18.3621470426       24.0996587745        6.5413400000  MEMB      59              0.0000000000
      6826        59  CHL1      C24           -18.7179155625       24.5863558042        4.5045200000  MEMB      59              0.0000000000
      6827        59  CHL1      H24A          -19.1215181629       23.6246209776        4.1217700000  MEMB      59              0.0000000000
      6828        59  CHL1      H24B          -19.0607797399       25.3869200199        3.8146900000  MEMB      59              0.0000000000
      6829        59  CHL1      C25           -17.1873179856       24.7180207498        4.2629800000  MEMB      59              0.0000000000
      6830        59  CHL1      H25           -16.5509670796       24.0092325409        4.8348200000  MEMB      59              0.0000000000
      6831        59  CHL1      C26           -16.8192035483       24.4749859870        2.7903600000  MEMB      59              0.0000000000
      6832        59  CHL1      H26A          -17.1750491840       23.4481150097        2.5596600000  MEMB      59              0.0000000000
      6833        59  CHL1      H26B          -17.3611194722       25.2398314306        2.1939800000  MEMB      59              0.0000000000
      6834        59  CHL1      H26C          -15.7404930622       24.4621013052        2.5248000000  MEMB      59              0.0000000000
      6835        59  CHL1      C27           -16.7628918073       26.1315378946        4.6106300000  MEMB      59              0.0000000000
      6836        59  CHL1      H27A          -17.0031436704       26.4680564106        5.6418200000  MEMB      59              0.0000000000
      6837        59  CHL1      H27B          -15.6780077513       26.1636923506        4.3733400000  MEMB      59              0.0000000000
      6838        59  CHL1      H27C          -17.3096847896       26.7716468576        3.8856500000  MEMB      59              0.0000000000
      6839        60  CHL1      C3            -31.5191797435        6.3342530664       17.2912550000  MEMB      60              0.0000000000
      6840        60  CHL1      H3            -32.5078491039        6.5739889818       16.8447450000  MEMB      60              0.0000000000
      6841        60  CHL1      O3            -31.5529326565        6.2599502336       18.7087450000  MEMB      60              0.0000000000
      6842        60  CHL1      H3'           -31.9864411986        5.4201974485       18.8775350000  MEMB      60              0.0000000000
      6843        60  CHL1      C4            -31.1820298287        4.9727193368       16.7683150000  MEMB      60              0.0000000000
      6844        60  CHL1      H4A           -30.2071772009        4.6511447997       17.1932650000  MEMB      60              0.0000000000
      6845        60  CHL1      H4B           -31.9145816663        4.2325732616       17.1554550000  MEMB      60              0.0000000000
      6846        60  CHL1      C5            -31.1789729628        4.9811619472       15.2519950000  MEMB      60              0.0000000000
      6847        60  CHL1      C6            -32.0004206926        4.2412665907       14.4692850000  MEMB      60              0.0000000000
      6848        60  CHL1      H6            -32.7710005729        3.6386831255       14.9723650000  MEMB      60              0.0000000000
      6849        60  CHL1      C7            -32.1182622848        4.1935682088       12.9765350000  MEMB      60              0.0000000000
      6850        60  CHL1      H7A           -32.3175425299        3.1710605515       12.5904150000  MEMB      60              0.0000000000
      6851        60  CHL1      H7B           -33.0058056879        4.7971872661       12.6897750000  MEMB      60              0.0000000000
      6852        60  CHL1      C8            -30.8084951677        4.6988029124       12.3154650000  MEMB      60              0.0000000000
      6853        60  CHL1      H8            -29.9386010045        4.0175086923       12.4314050000  MEMB      60              0.0000000000
      6854        60  CHL1      C14           -30.9266337985        4.9042212678       10.8200250000  MEMB      60              0.0000000000
      6855        60  CHL1      H14           -31.6003674532        5.7867873394       10.8585750000  MEMB      60              0.0000000000
      6856        60  CHL1      C15           -31.5495431094        3.7941507333        9.9299550000  MEMB      60              0.0000000000
      6857        60  CHL1      H15A          -31.3089167148        2.7428669645       10.1968450000  MEMB      60              0.0000000000
      6858        60  CHL1      H15B          -32.6557083023        3.8471201492       10.0188650000  MEMB      60              0.0000000000
      6859        60  CHL1      C16           -31.1271234959        4.1085270171        8.4965050000  MEMB      60              0.0000000000
      6860        60  CHL1      H16A          -30.5960252644        3.2798978840        7.9811050000  MEMB      60              0.0000000000
      6861        60  CHL1      H16B          -32.0489466005        4.2778459396        7.8999250000  MEMB      60              0.0000000000
      6862        60  CHL1      C17           -30.3674785772        5.4947051729        8.6661450000  MEMB      60              0.0000000000
      6863        60  CHL1      H17           -31.1329097427        6.2935394517        8.7676950000  MEMB      60              0.0000000000
      6864        60  CHL1      C13           -29.7789275477        5.4720552631       10.0750550000  MEMB      60              0.0000000000
      6865        60  CHL1      C18           -28.6094894488        4.4795285327       10.0382650000  MEMB      60              0.0000000000
      6866        60  CHL1      H18A          -27.7806188166        4.7769838944        9.3609150000  MEMB      60              0.0000000000
      6867        60  CHL1      H18B          -28.2014165527        4.3228922500       11.0596750000  MEMB      60              0.0000000000
      6868        60  CHL1      H18C          -28.9546284021        3.4767178295        9.7072350000  MEMB      60              0.0000000000
      6869        60  CHL1      C12           -29.3170233807        6.8139054760       10.7566850000  MEMB      60              0.0000000000
      6870        60  CHL1      H12A          -28.3444750544        7.1738320440       10.3580250000  MEMB      60              0.0000000000
      6871        60  CHL1      H12B          -30.1038617378        7.5795168449       10.5862250000  MEMB      60              0.0000000000
      6872        60  CHL1      C11           -29.1807472989        6.6377812527       12.2757350000  MEMB      60              0.0000000000
      6873        60  CHL1      H11A          -28.2757575388        6.0424941594       12.5226150000  MEMB      60              0.0000000000
      6874        60  CHL1      H11B          -29.1030944392        7.6768444180       12.6612650000  MEMB      60              0.0000000000
      6875        60  CHL1      C9            -30.3220700149        6.0610668867       13.0330550000  MEMB      60              0.0000000000
      6876        60  CHL1      H9            -31.1524840620        6.7886191194       12.9089050000  MEMB      60              0.0000000000
      6877        60  CHL1      C10           -30.1262517919        5.9301182477       14.6514750000  MEMB      60              0.0000000000
      6878        60  CHL1      C19           -28.7674847419        5.3393159383       15.0114750000  MEMB      60              0.0000000000
      6879        60  CHL1      H19A          -28.5646198911        5.0419958308       16.0625450000  MEMB      60              0.0000000000
      6880        60  CHL1      H19B          -28.5844078574        4.5268769970       14.2761150000  MEMB      60              0.0000000000
      6881        60  CHL1      H19C          -27.9177393434        6.0064927934       14.7523550000  MEMB      60              0.0000000000
      6882        60  CHL1      C1            -30.3018352649        7.2968378208       15.3126950000  MEMB      60              0.0000000000
      6883        60  CHL1      H1A           -29.3974660136        7.8558688484       14.9903150000  MEMB      60              0.0000000000
      6884        60  CHL1      H1B           -31.1018616842        7.9486325603       14.9010450000  MEMB      60              0.0000000000
      6885        60  CHL1      C2            -30.4470050972        7.3293908220       16.8291950000  MEMB      60              0.0000000000
      6886        60  CHL1      H2A           -30.8107248354        8.3626759448       17.0145350000  MEMB      60              0.0000000000
      6887        60  CHL1      H2B           -29.5078617832        7.2397491212       17.4159750000  MEMB      60              0.0000000000
      6888        60  CHL1      C20           -29.5620992421        5.9916833312        7.4048050000  MEMB      60              0.0000000000
      6889        60  CHL1      H20           -28.5364121724        5.5815217182        7.5233850000  MEMB      60              0.0000000000
      6890        60  CHL1      C21           -29.2932012696        7.4415963119        7.4677550000  MEMB      60              0.0000000000
      6891        60  CHL1      H21A          -30.2386770855        8.0177382417        7.3756950000  MEMB      60              0.0000000000
      6892        60  CHL1      H21B          -28.6598586307        7.8717306786        6.6626550000  MEMB      60              0.0000000000
      6893        60  CHL1      H21C          -28.8275674550        7.8463023567        8.3917250000  MEMB      60              0.0000000000
      6894        60  CHL1      C22           -30.1457404517        5.5449526872        6.0115150000  MEMB      60              0.0000000000
      6895        60  CHL1      H22A          -30.0809003581        4.4402841558        6.1106250000  MEMB      60              0.0000000000
      6896        60  CHL1      H22B          -31.2170754728        5.8314754869        5.9445350000  MEMB      60              0.0000000000
      6897        60  CHL1      C23           -29.3966704981        6.0322590534        4.7696350000  MEMB      60              0.0000000000
      6898        60  CHL1      H23A          -29.2687341237        7.1358203788        4.7807750000  MEMB      60              0.0000000000
      6899        60  CHL1      H23B          -28.3722332942        5.6231961376        4.9020350000  MEMB      60              0.0000000000
      6900        60  CHL1      C24           -29.9547588398        5.6257634780        3.4634750000  MEMB      60              0.0000000000
      6901        60  CHL1      H24A          -30.2006630241        4.5473067662        3.3595950000  MEMB      60              0.0000000000
      6902        60  CHL1      H24B          -30.9634730596        6.0878551281        3.4061850000  MEMB      60              0.0000000000
      6903        60  CHL1      C25           -29.1855312173        6.0015642148        2.2251250000  MEMB      60              0.0000000000
      6904        60  CHL1      H25           -28.1233377083        5.8784437995        2.5266350000  MEMB      60              0.0000000000
      6905        60  CHL1      C26           -29.4333601451        5.1042739201        0.9808850000  MEMB      60              0.0000000000
      6906        60  CHL1      H26A          -30.3471665967        5.4154244095        0.4309150000  MEMB      60              0.0000000000
      6907        60  CHL1      H26B          -28.5506535112        5.0087936888        0.3130150000  MEMB      60              0.0000000000
      6908        60  CHL1      H26C          -29.6598278270        4.0983372096        1.3945450000  MEMB      60              0.0000000000
      6909        60  CHL1      C27           -29.5552123159        7.3751337320        1.8292650000  MEMB      60              0.0000000000
      6910        60  CHL1      H27A          -29.0852255537        7.6946748171        0.8746350000  MEMB      60              0.0000000000
      6911        60  CHL1      H27B          -30.6364530847        7.4998820583        1.6063650000  MEMB      60              0.0000000000
      6912        60  CHL1      H27C          -29.3458308764        8.0874746089        2.6557350000  MEMB      60              0.0000000000
      6913        61  CHL1      C3             11.5643976762       30.2649363693       17.2879700000  MEMB      61              0.0000000000
      6914        61  CHL1      H3             11.3498416822       31.2806929019       16.8923300000  MEMB      61              0.0000000000
      6915        61  CHL1      O3             11.6814861238       30.2319750307       18.7120300000  MEMB      61              0.0000000000
      6916        61  CHL1      H3'            12.2822645115       30.9548254375       18.9073700000  MEMB      61              0.0000000000
      6917        61  CHL1      C4             10.3828663553       29.2872374170       16.8585300000  MEMB      61              0.0000000000
      6918        61  CHL1      H4A            10.7772709013       28.3611286866       17.3287400000  MEMB      61              0.0000000000
      6919        61  CHL1      H4B             9.4812221599       29.6316218494       17.4087700000  MEMB      61              0.0000000000
      6920        61  CHL1      C5             10.2576639991       29.2538935062       15.3808900000  MEMB      61              0.0000000000
      6921        61  CHL1      C6              9.1045688414       29.5537497890       14.7509900000  MEMB      61              0.0000000000
      6922        61  CHL1      H6              8.2301184894       29.8941841607       15.3249500000  MEMB      61              0.0000000000
      6923        61  CHL1      C7              8.9724720331       29.4475995425       13.2636300000  MEMB      61              0.0000000000
      6924        61  CHL1      H7A             7.9920374875       28.9894330117       13.0123600000  MEMB      61              0.0000000000
      6925        61  CHL1      H7B             8.9329732435       30.4520961225       12.7906100000  MEMB      61              0.0000000000
      6926        61  CHL1      C8             10.1716141664       28.8483338741       12.5475700000  MEMB      61              0.0000000000
      6927        61  CHL1      H8             10.1065209811       27.7558975347       12.7390600000  MEMB      61              0.0000000000
      6928        61  CHL1      C14             9.9952877619       29.2300455154       11.0861800000  MEMB      61              0.0000000000
      6929        61  CHL1      H14             9.9084948305       30.3376039830       11.0753600000  MEMB      61              0.0000000000
      6930        61  CHL1      C15             8.8133769245       28.7364835462       10.3788800000  MEMB      61              0.0000000000
      6931        61  CHL1      H15A            8.8498669201       27.6283938059       10.4505800000  MEMB      61              0.0000000000
      6932        61  CHL1      H15B            7.8929172630       29.0963876544       10.8863800000  MEMB      61              0.0000000000
      6933        61  CHL1      C16             8.9642088359       29.2825710947        8.9372200000  MEMB      61              0.0000000000
      6934        61  CHL1      H16A            8.8233256006       28.4887192648        8.1728300000  MEMB      61              0.0000000000
      6935        61  CHL1      H16B            8.3002517730       30.1704831616        8.8658000000  MEMB      61              0.0000000000
      6936        61  CHL1      C17            10.4862410553       29.6470253037        8.8608100000  MEMB      61              0.0000000000
      6937        61  CHL1      H17            10.6019890799       30.7502471913        8.9227200000  MEMB      61              0.0000000000
      6938        61  CHL1      C13            11.0929017921       28.9717211781       10.0916200000  MEMB      61              0.0000000000
      6939        61  CHL1      C18            11.3445724383       27.3475333777        9.8854600000  MEMB      61              0.0000000000
      6940        61  CHL1      H18A           12.2296552404       27.1923976966        9.2320800000  MEMB      61              0.0000000000
      6941        61  CHL1      H18B           11.4405133056       26.8844629850       10.8907900000  MEMB      61              0.0000000000
      6942        61  CHL1      H18C           10.4105201511       26.8917227538        9.4929000000  MEMB      61              0.0000000000
      6943        61  CHL1      C12            12.4060820307       29.5767869626       10.6539200000  MEMB      61              0.0000000000
      6944        61  CHL1      H12A           13.1586363817       29.1408884723        9.9625600000  MEMB      61              0.0000000000
      6945        61  CHL1      H12B           12.4290021076       30.6816793617       10.5398700000  MEMB      61              0.0000000000
      6946        61  CHL1      C11            12.6148502944       29.3360888340       12.1505300000  MEMB      61              0.0000000000
      6947        61  CHL1      H11A           13.1266326984       28.3751929661       12.3720500000  MEMB      61              0.0000000000
      6948        61  CHL1      H11B           13.2984765988       30.1419658311       12.4933700000  MEMB      61              0.0000000000
      6949        61  CHL1      C9             11.3570083559       29.3597690707       13.0772000000  MEMB      61              0.0000000000
      6950        61  CHL1      H9             11.2350261135       30.4640457115       13.0826500000  MEMB      61              0.0000000000
      6951        61  CHL1      C10            11.6195813421       29.0366513229       14.5698300000  MEMB      61              0.0000000000
      6952        61  CHL1      C19            12.0456850248       27.5402990975       14.7069700000  MEMB      61              0.0000000000
      6953        61  CHL1      H19A           11.2143501093       26.9082510370       14.3278400000  MEMB      61              0.0000000000
      6954        61  CHL1      H19B           12.9612501486       27.2881144490       14.1303700000  MEMB      61              0.0000000000
      6955        61  CHL1      H19C           12.1792309687       27.2885371938       15.7807900000  MEMB      61              0.0000000000
      6956        61  CHL1      C1             12.7280504993       29.8362175360       15.1678800000  MEMB      61              0.0000000000
      6957        61  CHL1      H1A            13.6767213589       29.5336728761       14.6751200000  MEMB      61              0.0000000000
      6958        61  CHL1      H1B            12.5749209978       30.8716481256       14.7953700000  MEMB      61              0.0000000000
      6959        61  CHL1      C2             12.9098392427       29.7511989000       16.6610200000  MEMB      61              0.0000000000
      6960        61  CHL1      H2A            13.7731265084       30.3676142668       16.9913300000  MEMB      61              0.0000000000
      6961        61  CHL1      H2B            13.1408742982       28.6903107883       16.8965100000  MEMB      61              0.0000000000
      6962        61  CHL1      C20            11.0399546385       29.3043444168        7.4326800000  MEMB      61              0.0000000000
      6963        61  CHL1      H20            10.8789297691       28.2315171180        7.1930300000  MEMB      61              0.0000000000
      6964        61  CHL1      C21            12.5926828745       29.4569809640        7.3487000000  MEMB      61              0.0000000000
      6965        61  CHL1      H21A           12.9057876285       30.4737156739        7.6689300000  MEMB      61              0.0000000000
      6966        61  CHL1      H21B           12.9830778763       29.3487117054        6.3142000000  MEMB      61              0.0000000000
      6967        61  CHL1      H21C           13.0591745654       28.5802739374        7.8467800000  MEMB      61              0.0000000000
      6968        61  CHL1      C22            10.3662904937       30.2163844252        6.4327300000  MEMB      61              0.0000000000
      6969        61  CHL1      H22A            9.2791171070       29.9875356267        6.4314500000  MEMB      61              0.0000000000
      6970        61  CHL1      H22B           10.5484242287       31.2596590864        6.7684500000  MEMB      61              0.0000000000
      6971        61  CHL1      C23            10.8103773464       30.0335652716        4.9934100000  MEMB      61              0.0000000000
      6972        61  CHL1      H23A           11.7587524781       30.5193636350        4.6789200000  MEMB      61              0.0000000000
      6973        61  CHL1      H23B           11.1376564404       28.9811058178        4.8537000000  MEMB      61              0.0000000000
      6974        61  CHL1      C24             9.7883008784       30.4135040784        3.9540000000  MEMB      61              0.0000000000
      6975        61  CHL1      H24A            8.9181737233       29.7323252063        4.0688700000  MEMB      61              0.0000000000
      6976        61  CHL1      H24B            9.3615600739       31.3975471457        4.2435800000  MEMB      61              0.0000000000
      6977        61  CHL1      C25            10.4230054434       30.4319443670        2.5199200000  MEMB      61              0.0000000000
      6978        61  CHL1      H25            10.9279546012       29.4592356355        2.3377700000  MEMB      61              0.0000000000
      6979        61  CHL1      C26             9.3604695198       30.4500874710        1.3339400000  MEMB      61              0.0000000000
      6980        61  CHL1      H26A            8.7515514797       29.5257010660        1.4290000000  MEMB      61              0.0000000000
      6981        61  CHL1      H26B            8.8338778417       31.4272310434        1.2867700000  MEMB      61              0.0000000000
      6982        61  CHL1      H26C            9.9334944828       30.4695506960        0.3823200000  MEMB      61              0.0000000000
      6983        61  CHL1      C27            11.3049821853       31.6204080240        2.2863400000  MEMB      61              0.0000000000
      6984        61  CHL1      H27A           11.8920873000       31.5143674171        1.3491200000  MEMB      61              0.0000000000
      6985        61  CHL1      H27B           10.7113255579       32.5488090977        2.1451200000  MEMB      61              0.0000000000
      6986        61  CHL1      H27C           12.0005070802       31.7444920628        3.1437600000  MEMB      61              0.0000000000
      6987        62  OSM       N              -4.6177892423      -32.1265674644       21.4554424481  MEMB      62              0.0000000000
      6988        62  OSM       C15            -4.9307683210      -30.6140275387       21.3124448132  MEMB      62              0.0000000000
      6989        62  OSM       H15A           -4.5199039328      -30.1293597461       20.4391249871  MEMB      62              0.0000000000
      6990        62  OSM       H15B           -4.6050454836      -30.0812321340       22.1935996449  MEMB      62              0.0000000000
      6991        62  OSM       H15C           -5.9948568926      -30.4470308751       21.2335297527  MEMB      62              0.0000000000
      6992        62  OSM       C14            -3.1787894883      -32.3978359952       21.1327490968  MEMB      62              0.0000000000
      6993        62  OSM       H14A           -3.0971496847      -33.4733125465       21.0772018483  MEMB      62              0.0000000000
      6994        62  OSM       H14B           -2.5961352435      -31.9407230919       21.9188545272  MEMB      62              0.0000000000
      6995        62  OSM       H14C           -2.8297638877      -31.9138767909       20.2325464603  MEMB      62              0.0000000000
      6996        62  OSM       C13            -4.8814356978      -32.4387427462       22.9242842694  MEMB      62              0.0000000000
      6997        62  OSM       H13A           -4.1538216203      -31.7659516347       23.3536207325  MEMB      62              0.0000000000
      6998        62  OSM       H13B           -4.6227645612      -33.4598877398       23.1625111707  MEMB      62              0.0000000000
      6999        62  OSM       H13C           -5.9101652838      -32.2244494124       23.1736712621  MEMB      62              0.0000000000
      7000        62  OSM       C12            -5.4490559916      -32.9588495766       20.5223917242  MEMB      62              0.0000000000
      7001        62  OSM       H12A           -5.1571643849      -33.9931181163       20.4152106167  MEMB      62              0.0000000000
      7002        62  OSM       H12B           -5.4000840553      -32.4650250626       19.5631529440  MEMB      62              0.0000000000
      7003        62  OSM       C11            -6.9941485719      -33.0734333933       20.9231164950  MEMB      62              0.0000000000
      7004        62  OSM       H11A           -7.1645013008      -33.6511615056       21.8566748562  MEMB      62              0.0000000000
      7005        62  OSM       H11B           -7.4847723544      -33.6989373795       20.1470017141  MEMB      62              0.0000000000
      7006        62  OSM       P              -9.0682821877      -31.4576702273       20.5689855337  MEMB      62              0.0000000000
      7007        62  OSM       O13            -9.9366696817      -32.5916859287       21.1354708685  MEMB      62              0.0000000000
      7008        62  OSM       O14            -9.4354685681      -30.0302567951       20.8828725901  MEMB      62              0.0000000000
      7009        62  OSM       O11            -8.8679649519      -31.7184824482       19.0158275933  MEMB      62              0.0000000000
      7010        62  OSM       O12            -7.6276909978      -31.7792926827       21.1264145673  MEMB      62              0.0000000000
      7011        62  OSM       C1S            -8.0796820273      -30.7589465860       18.3947478352  MEMB      62              0.0000000000
      7012        62  OSM       H1S            -7.0699079095      -30.9049447823       18.8344771397  MEMB      62              0.0000000000
      7013        62  OSM       H1T            -8.5044674281      -29.7512822325       18.5909386209  MEMB      62              0.0000000000
      7014        62  OSM       NF             -6.6574035641      -30.5731059839       16.3931276176  MEMB      62              0.0000000000
      7015        62  OSM       HNF            -6.8138793129      -29.8506601355       15.7241013299  MEMB      62              0.0000000000
      7016        62  OSM       C2S            -7.8983997488      -31.0364189259       16.8963352115  MEMB      62              0.0000000000
      7017        62  OSM       H2S            -8.0574784110      -32.1185494880       16.7013779424  MEMB      62              0.0000000000
      7018        62  OSM       C3S            -9.1043919806      -30.4677170699       16.0748354367  MEMB      62              0.0000000000
      7019        62  OSM       H3S            -9.0973072537      -29.3636450234       16.1985111104  MEMB      62              0.0000000000
      7020        62  OSM       O3            -10.3534644349      -30.9776983247       16.4184065900  MEMB      62              0.0000000000
      7021        62  OSM       HO3           -10.3903472632      -31.2354175165       17.3424307015  MEMB      62              0.0000000000
      7022        62  OSM       C4S            -8.8492112215      -30.7442611498       14.6449259591  MEMB      62              0.0000000000
      7023        62  OSM       H4S            -8.2783592962      -31.6467569198       14.3810513561  MEMB      62              0.0000000000
      7024        62  OSM       C5S            -9.3034356140      -29.9923794394       13.6341219576  MEMB      62              0.0000000000
      7025        62  OSM       H5S            -9.8385475453      -29.0463788046       13.8036455318  MEMB      62              0.0000000000
      7026        62  OSM       C6S            -9.0605052451      -30.2931436618       12.1714754227  MEMB      62              0.0000000000
      7027        62  OSM       H6S            -8.1608440047      -29.7249394081       11.8519847191  MEMB      62              0.0000000000
      7028        62  OSM       H6T            -9.9104327262      -30.0797094564       11.4885475804  MEMB      62              0.0000000000
      7029        62  OSM       C7S            -8.9279925602      -31.7881068128       11.8758629191  MEMB      62              0.0000000000
      7030        62  OSM       H7S            -9.9013411882      -32.2874360200       12.0697278112  MEMB      62              0.0000000000
      7031        62  OSM       H7T            -8.1146945296      -32.2579096810       12.4692875023  MEMB      62              0.0000000000
      7032        62  OSM       C8S            -8.5108975833      -32.2095130162       10.4467803557  MEMB      62              0.0000000000
      7033        62  OSM       H8S            -8.2809100570      -33.2963793550       10.4346079357  MEMB      62              0.0000000000
      7034        62  OSM       H8T            -7.5263813255      -31.7315751870       10.2554052307  MEMB      62              0.0000000000
      7035        62  OSM       C9S            -9.5605667108      -31.9608199223        9.4786013749  MEMB      62              0.0000000000
      7036        62  OSM       H9S            -9.9159959869      -30.9095767884        9.5322590024  MEMB      62              0.0000000000
      7037        62  OSM       H9T           -10.3929168593      -32.6768248655        9.6484570786  MEMB      62              0.0000000000
      7038        62  OSM       C10S           -9.1712618744      -32.2386792677        8.0376721929  MEMB      62              0.0000000000
      7039        62  OSM       H10S          -10.0861518092      -32.2762641962        7.4084785183  MEMB      62              0.0000000000
      7040        62  OSM       H10T           -8.7069876132      -33.2424402625        7.9316814686  MEMB      62              0.0000000000
      7041        62  OSM       C11S           -8.0635438742      -31.3554547638        7.3158461520  MEMB      62              0.0000000000
      7042        62  OSM       H11S           -7.0805820456      -31.5340058653        7.8018774047  MEMB      62              0.0000000000
      7043        62  OSM       H11T           -8.4127876139      -30.3007845539        7.3113085040  MEMB      62              0.0000000000
      7044        62  OSM       C12S           -7.8859723298      -31.7840998414        5.8093064939  MEMB      62              0.0000000000
      7045        62  OSM       H12S           -8.8494616428      -32.1763841682        5.4192779306  MEMB      62              0.0000000000
      7046        62  OSM       H12T           -7.1476698438      -32.6140787609        5.7901867096  MEMB      62              0.0000000000
      7047        62  OSM       C13S           -7.4476749466      -30.5689261950        4.8980442227  MEMB      62              0.0000000000
      7048        62  OSM       H13S           -6.9787399094      -31.0374374422        4.0064622474  MEMB      62              0.0000000000
      7049        62  OSM       H13T           -6.6850459395      -29.9473947303        5.4142000127  MEMB      62              0.0000000000
      7050        62  OSM       C14S           -8.6820447184      -29.7624089334        4.4820461253  MEMB      62              0.0000000000
      7051        62  OSM       H14S           -9.1897894307      -29.2883967874        5.3491267979  MEMB      62              0.0000000000
      7052        62  OSM       H14T           -9.4081913602      -30.4858876246        4.0535483475  MEMB      62              0.0000000000
      7053        62  OSM       C15S           -8.3962503935      -28.5950317028        3.4265319622  MEMB      62              0.0000000000
      7054        62  OSM       H15S           -7.7261202560      -27.8834975678        3.9547036560  MEMB      62              0.0000000000
      7055        62  OSM       H15T           -9.4194219343      -28.1721633596        3.3336712745  MEMB      62              0.0000000000
      7056        62  OSM       C16S           -7.8536009149      -29.1762101282        2.1467921044  MEMB      62              0.0000000000
      7057        62  OSM       H16S           -8.4692518857      -30.0668827826        1.8978001670  MEMB      62              0.0000000000
      7058        62  OSM       H16T           -6.8470755505      -29.6218421179        2.2972570961  MEMB      62              0.0000000000
      7059        62  OSM       C17S           -7.7162496369      -28.2169167347        1.0122943451  MEMB      62              0.0000000000
      7060        62  OSM       H17S           -6.9755485485      -27.3974639961        1.1313746550  MEMB      62              0.0000000000
      7061        62  OSM       H17T           -8.7040583530      -27.7108039050        0.9632563550  MEMB      62              0.0000000000
      7062        62  OSM       C18S           -7.4438215815      -28.8349822574       -0.3477707882  MEMB      62              0.0000000000
      7063        62  OSM       H18S           -6.3741619100      -29.1294356440       -0.4064809861  MEMB      62              0.0000000000
      7064        62  OSM       H18T           -7.6777309351      -28.1033315512       -1.1504517184  MEMB      62              0.0000000000
      7065        62  OSM       H18U           -8.0766728236      -29.7294737659       -0.5313612021  MEMB      62              0.0000000000
      7066        62  OSM       C1F            -5.5653525034      -31.2839492947       16.5675115243  MEMB      62              0.0000000000
      7067        62  OSM       OF             -5.6688842033      -32.2991140565       17.2676742904  MEMB      62              0.0000000000
      7068        62  OSM       C2F            -4.2646096282      -30.8227831268       16.1075200943  MEMB      62              0.0000000000
      7069        62  OSM       H2F            -3.5863740717      -30.8664152424       16.9863910703  MEMB      62              0.0000000000
      7070        62  OSM       H2G            -4.3637970195      -29.7491585587       15.8395404020  MEMB      62              0.0000000000
      7071        62  OSM       C3F            -3.6650206523      -31.7579953410       15.0401334627  MEMB      62              0.0000000000
      7072        62  OSM       H3F            -4.1935164815      -31.4498457169       14.1127410356  MEMB      62              0.0000000000
      7073        62  OSM       H3G            -3.9256347194      -32.8209295492       15.2313717350  MEMB      62              0.0000000000
      7074        62  OSM       C4F            -2.1962532171      -31.4970598914       14.8484031827  MEMB      62              0.0000000000
      7075        62  OSM       H4F            -1.6765777833      -32.1252059827       15.6031822268  MEMB      62              0.0000000000
      7076        62  OSM       H4G            -1.8081136965      -30.5015808455       15.1528539961  MEMB      62              0.0000000000
      7077        62  OSM       C5F            -1.5852897529      -31.9288013189       13.5162132425  MEMB      62              0.0000000000
      7078        62  OSM       H5F            -1.9258344165      -32.9297922038       13.1750860554  MEMB      62              0.0000000000
      7079        62  OSM       H5G            -0.5041364090      -32.0848517617       13.7188868985  MEMB      62              0.0000000000
      7080        62  OSM       C6F            -1.8394288470      -30.9562575198       12.3953541025  MEMB      62              0.0000000000
      7081        62  OSM       H6F            -1.2157406934      -30.0781630696       12.6679048656  MEMB      62              0.0000000000
      7082        62  OSM       H6G            -2.8972173987      -30.6195972935       12.3499195187  MEMB      62              0.0000000000
      7083        62  OSM       C7F            -1.2229397466      -31.3186964888       10.9973149922  MEMB      62              0.0000000000
      7084        62  OSM       H7F            -0.2811406886      -31.9026367655       11.0770008856  MEMB      62              0.0000000000
      7085        62  OSM       H7G            -1.0349382069      -30.3926134337       10.4130665266  MEMB      62              0.0000000000
      7086        62  OSM       C8F            -2.1608309227      -32.1466779062       10.1101792214  MEMB      62              0.0000000000
      7087        62  OSM       H8F            -2.5262475550      -33.0735937943       10.6017261694  MEMB      62              0.0000000000
      7088        62  OSM       H8G            -1.5874712623      -32.5546090063        9.2504273784  MEMB      62              0.0000000000
      7089        62  OSM       C9F            -3.3785843894      -31.3721478592        9.6310323462  MEMB      62              0.0000000000
      7090        62  OSM       H9F            -4.2484921270      -31.3958428169       10.3038607521  MEMB      62              0.0000000000
      7091        62  OSM       C10F           -3.5784577053      -30.9112507452        8.3839531336  MEMB      62              0.0000000000
      7092        62  OSM       H10F           -4.4617704096      -30.3074099578        8.1287372258  MEMB      62              0.0000000000
      7093        62  OSM       C11F           -2.7991598388      -30.9423293347        7.0682887862  MEMB      62              0.0000000000
      7094        62  OSM       H11F           -1.7673031562      -31.3145828408        7.2444139410  MEMB      62              0.0000000000
      7095        62  OSM       H11G           -2.4115077499      -29.9497940590        6.7537726263  MEMB      62              0.0000000000
      7096        62  OSM       C12F           -3.5118258401      -31.6943771741        5.9473296016  MEMB      62              0.0000000000
      7097        62  OSM       H12F           -4.5544114512      -31.3105393750        5.9450982085  MEMB      62              0.0000000000
      7098        62  OSM       H12G           -3.6853573274      -32.7599339736        6.2096206607  MEMB      62              0.0000000000
      7099        62  OSM       C13F           -2.9013285176      -31.4487731212        4.6381233607  MEMB      62              0.0000000000
      7100        62  OSM       H13F           -2.0509769740      -32.1464704344        4.4817877859  MEMB      62              0.0000000000
      7101        62  OSM       H13G           -2.4296801398      -30.4563609730        4.8024002716  MEMB      62              0.0000000000
      7102        62  OSM       C14F           -3.7047556425      -31.3764921289        3.3703559150  MEMB      62              0.0000000000
      7103        62  OSM       H14F           -3.0610574122      -31.3672598913        2.4648797466  MEMB      62              0.0000000000
      7104        62  OSM       H14G           -4.3785280924      -30.4934154059        3.3933126267  MEMB      62              0.0000000000
      7105        62  OSM       C15F           -4.5566132878      -32.6844325131        3.3253938656  MEMB      62              0.0000000000
      7106        62  OSM       H15F           -5.3724325026      -32.6148084454        4.0763345386  MEMB      62              0.0000000000
      7107        62  OSM       H15G           -4.0162058625      -33.5953199291        3.6609013050  MEMB      62              0.0000000000
      7108        62  OSM       C16F           -5.2123983678      -32.8582619513        1.9617198733  MEMB      62              0.0000000000
      7109        62  OSM       H16F           -4.3474566448      -32.9055496888        1.2660471393  MEMB      62              0.0000000000
      7110        62  OSM       H16G           -5.8654345803      -31.9843059184        1.7518019784  MEMB      62              0.0000000000
      7111        62  OSM       C17F           -5.9884671959      -34.1302271655        1.8879611128  MEMB      62              0.0000000000
      7112        62  OSM       H17F           -6.3355529921      -34.5767102900        2.8442592227  MEMB      62              0.0000000000
      7113        62  OSM       H17G           -5.2547552777      -34.8583849783        1.4808082525  MEMB      62              0.0000000000
      7114        62  OSM       C18F           -7.0981432788      -34.1196796344        0.8044230801  MEMB      62              0.0000000000
      7115        62  OSM       H18F           -7.9250573698      -33.4016985885        0.9916045351  MEMB      62              0.0000000000
      7116        62  OSM       H18G           -7.4262147771      -35.1499391954        0.5489723838  MEMB      62              0.0000000000
      7117        62  OSM       H18H           -6.5878994319      -33.7856577598       -0.1242333535  MEMB      62              0.0000000000
      7118        63  CHL1      C3            -25.9619031799      -22.1929500996       17.3327750000  MEMB      63              0.0000000000
      7119        63  CHL1      H3            -26.9134661551      -21.6442887385       17.1659750000  MEMB      63              0.0000000000
      7120        63  CHL1      O3            -25.6107784935      -22.0697272178       18.6672250000  MEMB      63              0.0000000000
      7121        63  CHL1      H3'           -25.9691430291      -21.1929486263       18.8235550000  MEMB      63              0.0000000000
      7122        63  CHL1      C4            -25.9406887041      -23.5824652060       16.8578450000  MEMB      63              0.0000000000
      7123        63  CHL1      H4A           -25.0172029496      -24.1612895937       17.0734150000  MEMB      63              0.0000000000
      7124        63  CHL1      H4B           -26.7276262472      -24.1003009052       17.4468250000  MEMB      63              0.0000000000
      7125        63  CHL1      C5            -26.2540839898      -23.6385828628       15.3264150000  MEMB      63              0.0000000000
      7126        63  CHL1      C6            -27.2246877189      -24.3813123579       14.7948550000  MEMB      63              0.0000000000
      7127        63  CHL1      H6            -27.9143714998      -24.9548088326       15.4315950000  MEMB      63              0.0000000000
      7128        63  CHL1      C7            -27.4235845354      -24.4383293176       13.2936150000  MEMB      63              0.0000000000
      7129        63  CHL1      H7A           -27.5962522809      -25.5073509152       13.0451850000  MEMB      63              0.0000000000
      7130        63  CHL1      H7B           -28.2560259309      -23.7997398222       12.9281350000  MEMB      63              0.0000000000
      7131        63  CHL1      C8            -26.2177748507      -23.9751282549       12.4493950000  MEMB      63              0.0000000000
      7132        63  CHL1      H8            -25.3878947431      -24.7119530001       12.5014650000  MEMB      63              0.0000000000
      7133        63  CHL1      C14           -26.5238743051      -23.7582997103       10.9621950000  MEMB      63              0.0000000000
      7134        63  CHL1      H14           -27.2983692462      -22.9652797007       11.0367650000  MEMB      63              0.0000000000
      7135        63  CHL1      C15           -27.1512606502      -24.9484954706       10.1484650000  MEMB      63              0.0000000000
      7136        63  CHL1      H15A          -26.7192553704      -25.9191115397       10.4734350000  MEMB      63              0.0000000000
      7137        63  CHL1      H15B          -28.2382495476      -24.9783860869       10.3762450000  MEMB      63              0.0000000000
      7138        63  CHL1      C16           -26.7867044714      -24.6124306016        8.6969850000  MEMB      63              0.0000000000
      7139        63  CHL1      H16A          -26.0834317497      -25.3781846113        8.3053850000  MEMB      63              0.0000000000
      7140        63  CHL1      H16B          -27.6726275545      -24.6363290790        8.0269850000  MEMB      63              0.0000000000
      7141        63  CHL1      C17           -26.0319452411      -23.2696313462        8.7026750000  MEMB      63              0.0000000000
      7142        63  CHL1      H17           -26.8006703814      -22.4677021336        8.6857050000  MEMB      63              0.0000000000
      7143        63  CHL1      C13           -25.3326685452      -23.2898967750       10.0572550000  MEMB      63              0.0000000000
      7144        63  CHL1      C18           -24.1424621499      -24.2873544246       10.1069950000  MEMB      63              0.0000000000
      7145        63  CHL1      H18A          -23.8820044845      -24.6334667299       11.1300750000  MEMB      63              0.0000000000
      7146        63  CHL1      H18B          -24.3322622982      -25.2556871326        9.5964850000  MEMB      63              0.0000000000
      7147        63  CHL1      H18C          -23.2209378860      -23.8303865254        9.6871150000  MEMB      63              0.0000000000
      7148        63  CHL1      C12           -24.9660240811      -21.9108206569       10.5967550000  MEMB      63              0.0000000000
      7149        63  CHL1      H12A          -24.0685476470      -21.4496858542       10.1317850000  MEMB      63              0.0000000000
      7150        63  CHL1      H12B          -25.7850872913      -21.1602875299       10.5831350000  MEMB      63              0.0000000000
      7151        63  CHL1      C11           -24.5111329547      -22.0999449864       12.0897250000  MEMB      63              0.0000000000
      7152        63  CHL1      H11A          -23.6958901257      -22.8523554487       12.1496350000  MEMB      63              0.0000000000
      7153        63  CHL1      H11B          -24.0840367228      -21.1277135525       12.4163150000  MEMB      63              0.0000000000
      7154        63  CHL1      C9            -25.6450458992      -22.7065235524       12.9734750000  MEMB      63              0.0000000000
      7155        63  CHL1      H9            -26.4807890441      -21.9854156388       12.8475750000  MEMB      63              0.0000000000
      7156        63  CHL1      C10           -25.2307798826      -22.8001085280       14.4711750000  MEMB      63              0.0000000000
      7157        63  CHL1      C19           -23.8861760596      -23.5392469664       14.6000250000  MEMB      63              0.0000000000
      7158        63  CHL1      H19A          -23.6783326129      -23.8625040211       15.6424350000  MEMB      63              0.0000000000
      7159        63  CHL1      H19B          -23.8537154522      -24.4933891359       14.0318150000  MEMB      63              0.0000000000
      7160        63  CHL1      H19C          -22.9650470604      -22.9896115187       14.3106350000  MEMB      63              0.0000000000
      7161        63  CHL1      C1            -24.9858744928      -21.3785672395       15.1804650000  MEMB      63              0.0000000000
      7162        63  CHL1      H1A           -24.1156483687      -20.8490341225       14.7370750000  MEMB      63              0.0000000000
      7163        63  CHL1      H1B           -25.9340038433      -20.8546983353       14.9335750000  MEMB      63              0.0000000000
      7164        63  CHL1      C2            -24.7928148598      -21.4559546836       16.7045650000  MEMB      63              0.0000000000
      7165        63  CHL1      H2A           -24.6320066710      -20.4610539273       17.1721650000  MEMB      63              0.0000000000
      7166        63  CHL1      H2B           -23.8748921728      -22.0228512937       16.9698050000  MEMB      63              0.0000000000
      7167        63  CHL1      C20           -25.2175430128      -23.1720943855        7.4692950000  MEMB      63              0.0000000000
      7168        63  CHL1      H20           -24.4271457535      -23.9528619309        7.4693250000  MEMB      63              0.0000000000
      7169        63  CHL1      C21           -24.3703564289      -21.9034937123        7.3272350000  MEMB      63              0.0000000000
      7170        63  CHL1      H21A          -23.6826926704      -21.7288112043        8.1821750000  MEMB      63              0.0000000000
      7171        63  CHL1      H21B          -25.0400466988      -21.0197486159        7.3965150000  MEMB      63              0.0000000000
      7172        63  CHL1      H21C          -23.7503458691      -21.7715783086        6.4148050000  MEMB      63              0.0000000000
      7173        63  CHL1      C22           -26.0443519305      -23.4675308979        6.1669050000  MEMB      63              0.0000000000
      7174        63  CHL1      H22A          -26.6372088535      -24.4071014543        6.1735250000  MEMB      63              0.0000000000
      7175        63  CHL1      H22B          -26.7698705421      -22.6786169986        5.8744450000  MEMB      63              0.0000000000
      7176        63  CHL1      C23           -25.1497436862      -23.6262012044        4.9205050000  MEMB      63              0.0000000000
      7177        63  CHL1      H23A          -24.3546940749      -22.8507970233        4.8891550000  MEMB      63              0.0000000000
      7178        63  CHL1      H23B          -24.5164217681      -24.5381673832        4.8813050000  MEMB      63              0.0000000000
      7179        63  CHL1      C24           -25.8834727341      -23.6126264738        3.5386450000  MEMB      63              0.0000000000
      7180        63  CHL1      H24A          -26.5580527371      -24.4950806412        3.5154550000  MEMB      63              0.0000000000
      7181        63  CHL1      H24B          -26.5331400389      -22.7134023408        3.4783050000  MEMB      63              0.0000000000
      7182        63  CHL1      C25           -24.9746434727      -23.6616335291        2.2710050000  MEMB      63              0.0000000000
      7183        63  CHL1      H25           -24.1037724843      -22.9792362594        2.3721850000  MEMB      63              0.0000000000
      7184        63  CHL1      C26           -24.3972866333      -24.9935718146        1.9362950000  MEMB      63              0.0000000000
      7185        63  CHL1      H26A          -23.7442897498      -24.8243572293        1.0535250000  MEMB      63              0.0000000000
      7186        63  CHL1      H26B          -23.6358417503      -25.3642077733        2.6554250000  MEMB      63              0.0000000000
      7187        63  CHL1      H26C          -25.1270254056      -25.8308635002        1.9085850000  MEMB      63              0.0000000000
      7188        63  CHL1      C27           -25.7550374805      -23.2663655939        0.9620450000  MEMB      63              0.0000000000
      7189        63  CHL1      H27A          -26.6246481065      -23.9409946535        0.8105050000  MEMB      63              0.0000000000
      7190        63  CHL1      H27B          -25.9228443889      -22.1681095552        0.9591850000  MEMB      63              0.0000000000
      7191        63  CHL1      H27C          -25.1017847733      -23.4348845706        0.0793350000  MEMB      63              0.0000000000
      7192        64  CHL1      C3            -33.6385691545       -0.7654702836       17.3675950000  MEMB      64              0.0000000000
      7193        64  CHL1      H3            -32.8268944388       -0.0237226416       17.5267250000  MEMB      64              0.0000000000
      7194        64  CHL1      O3            -33.9569582455       -1.4160813764       18.6324050000  MEMB      64              0.0000000000
      7195        64  CHL1      H3'           -34.2345720036       -0.7338742425       19.2481350000  MEMB      64              0.0000000000
      7196        64  CHL1      C4            -34.9684526941       -0.1121668545       16.8421650000  MEMB      64              0.0000000000
      7197        64  CHL1      H4A           -35.8051815518       -0.8388755947       16.7640950000  MEMB      64              0.0000000000
      7198        64  CHL1      H4B           -35.3254304586        0.6845093835       17.5293250000  MEMB      64              0.0000000000
      7199        64  CHL1      C5            -34.6422809977        0.4226564084       15.4154650000  MEMB      64              0.0000000000
      7200        64  CHL1      C6            -34.8625261120        1.6726015185       15.0416750000  MEMB      64              0.0000000000
      7201        64  CHL1      H6            -35.2341805417        2.3900739239       15.7880650000  MEMB      64              0.0000000000
      7202        64  CHL1      C7            -34.6784129041        2.1844555077       13.6588850000  MEMB      64              0.0000000000
      7203        64  CHL1      H7A           -35.4962509039        2.8864135594       13.3892150000  MEMB      64              0.0000000000
      7204        64  CHL1      H7B           -33.7208191442        2.7370361424       13.5493550000  MEMB      64              0.0000000000
      7205        64  CHL1      C8            -34.8021545243        1.0525038138       12.5925650000  MEMB      64              0.0000000000
      7206        64  CHL1      H8            -35.8343448962        0.6436786154       12.5505050000  MEMB      64              0.0000000000
      7207        64  CHL1      C14           -34.3638179432        1.6334582879       11.3203350000  MEMB      64              0.0000000000
      7208        64  CHL1      H14           -33.4477794509        2.2450348676       11.4657750000  MEMB      64              0.0000000000
      7209        64  CHL1      C15           -35.3092121465        2.6732540911       10.6436950000  MEMB      64              0.0000000000
      7210        64  CHL1      H15A          -36.3620681602        2.3205372900       10.6063450000  MEMB      64              0.0000000000
      7211        64  CHL1      H15B          -35.3250375605        3.6639817560       11.1462150000  MEMB      64              0.0000000000
      7212        64  CHL1      C16           -34.7685903471        2.8398479485        9.2656950000  MEMB      64              0.0000000000
      7213        64  CHL1      H16A          -35.5156802083        2.6076473624        8.4768650000  MEMB      64              0.0000000000
      7214        64  CHL1      H16B          -34.2909395050        3.8376354984        9.1628050000  MEMB      64              0.0000000000
      7215        64  CHL1      C17           -33.7349394524        1.7170212273        9.0793550000  MEMB      64              0.0000000000
      7216        64  CHL1      H17           -32.7925170231        2.1954559644        9.4218050000  MEMB      64              0.0000000000
      7217        64  CHL1      C13           -34.0635063992        0.6228146282       10.1756350000  MEMB      64              0.0000000000
      7218        64  CHL1      C18           -35.2883456943       -0.1718923039        9.6032050000  MEMB      64              0.0000000000
      7219        64  CHL1      H18A          -34.9510344594       -0.9072061771        8.8417150000  MEMB      64              0.0000000000
      7220        64  CHL1      H18B          -35.8077528186       -0.7656739650       10.3854850000  MEMB      64              0.0000000000
      7221        64  CHL1      H18C          -36.0690422725        0.4010936806        9.0586750000  MEMB      64              0.0000000000
      7222        64  CHL1      C12           -32.8803773045       -0.2557188251       10.6875250000  MEMB      64              0.0000000000
      7223        64  CHL1      H12A          -32.5991454816       -1.0012403690        9.9132950000  MEMB      64              0.0000000000
      7224        64  CHL1      H12B          -31.9981127302        0.3946202967       10.8691750000  MEMB      64              0.0000000000
      7225        64  CHL1      C11           -33.3333793651       -1.0974047057       11.9345550000  MEMB      64              0.0000000000
      7226        64  CHL1      H11A          -34.1381098774       -1.7993155652       11.6278750000  MEMB      64              0.0000000000
      7227        64  CHL1      H11B          -32.6239563985       -1.8316510819       12.3726650000  MEMB      64              0.0000000000
      7228        64  CHL1      C9            -33.8079618688       -0.0121665882       13.0414750000  MEMB      64              0.0000000000
      7229        64  CHL1      H9            -32.9021856730        0.5869553631       13.2758950000  MEMB      64              0.0000000000
      7230        64  CHL1      C10           -34.1200307417       -0.6402538660       14.3946150000  MEMB      64              0.0000000000
      7231        64  CHL1      C19           -35.2366812937       -1.6901475878       14.1645150000  MEMB      64              0.0000000000
      7232        64  CHL1      H19A          -35.4769802718       -2.2827792951       15.0730050000  MEMB      64              0.0000000000
      7233        64  CHL1      H19B          -36.1787072572       -1.2110939366       13.8218650000  MEMB      64              0.0000000000
      7234        64  CHL1      H19C          -34.9154274578       -2.5237671802       13.5040550000  MEMB      64              0.0000000000
      7235        64  CHL1      C1            -32.8116985184       -1.3386438347       15.0203050000  MEMB      64              0.0000000000
      7236        64  CHL1      H1A           -32.4091867058       -2.0653823786       14.2826350000  MEMB      64              0.0000000000
      7237        64  CHL1      H1B           -32.0143860875       -0.5685562126       15.0949750000  MEMB      64              0.0000000000
      7238        64  CHL1      C2            -33.0952922174       -1.8250815302       16.4060750000  MEMB      64              0.0000000000
      7239        64  CHL1      H2A           -32.2411729491       -2.3018470706       16.9328550000  MEMB      64              0.0000000000
      7240        64  CHL1      H2B           -33.8252752797       -2.6624105275       16.3884050000  MEMB      64              0.0000000000
      7241        64  CHL1      C20           -33.3407823384        1.3141925055        7.6051450000  MEMB      64              0.0000000000
      7242        64  CHL1      H20           -34.1393535026        0.6229727512        7.2604250000  MEMB      64              0.0000000000
      7243        64  CHL1      C21           -31.9541489999        0.6636683433        7.4557850000  MEMB      64              0.0000000000
      7244        64  CHL1      H21A          -32.0245236312       -0.3267206585        7.9542850000  MEMB      64              0.0000000000
      7245        64  CHL1      H21B          -31.1591657623        1.3595651995        7.7993650000  MEMB      64              0.0000000000
      7246        64  CHL1      H21C          -31.7774827223        0.4347113795        6.3830850000  MEMB      64              0.0000000000
      7247        64  CHL1      C22           -33.5007891841        2.4479223566        6.5803850000  MEMB      64              0.0000000000
      7248        64  CHL1      H22A          -34.3957351554        3.0848424962        6.7468550000  MEMB      64              0.0000000000
      7249        64  CHL1      H22B          -32.6218981753        3.1076714283        6.7434750000  MEMB      64              0.0000000000
      7250        64  CHL1      C23           -33.5036608607        2.0191692539        5.1016750000  MEMB      64              0.0000000000
      7251        64  CHL1      H23A          -32.4583057908        1.7269075875        4.8647350000  MEMB      64              0.0000000000
      7252        64  CHL1      H23B          -34.2144860272        1.1721636287        4.9938450000  MEMB      64              0.0000000000
      7253        64  CHL1      C24           -33.7636986731        3.1502715229        4.1331650000  MEMB      64              0.0000000000
      7254        64  CHL1      H24A          -34.8019699908        3.5276825808        4.0153450000  MEMB      64              0.0000000000
      7255        64  CHL1      H24B          -33.2027935719        4.0610850380        4.4333950000  MEMB      64              0.0000000000
      7256        64  CHL1      C25           -33.2466905406        2.8267108278        2.7079250000  MEMB      64              0.0000000000
      7257        64  CHL1      H25           -33.7381222647        3.6203294154        2.1054350000  MEMB      64              0.0000000000
      7258        64  CHL1      C26           -31.7404661870        2.9382981056        2.5747750000  MEMB      64              0.0000000000
      7259        64  CHL1      H26A          -31.2261941712        1.9953797338        2.8589450000  MEMB      64              0.0000000000
      7260        64  CHL1      H26B          -31.5167066111        3.0542185516        1.4927350000  MEMB      64              0.0000000000
      7261        64  CHL1      H26C          -31.3377263803        3.7849037037        3.1709150000  MEMB      64              0.0000000000
      7262        64  CHL1      C27           -33.7568475667        1.4887869014        2.1073850000  MEMB      64              0.0000000000
      7263        64  CHL1      H27A          -33.2272149378        1.4159820983        1.1334650000  MEMB      64              0.0000000000
      7264        64  CHL1      H27B          -33.3510552797        0.6759254112        2.7468550000  MEMB      64              0.0000000000
      7265        64  CHL1      H27C          -34.8500970920        1.4364927904        1.9166350000  MEMB      64              0.0000000000
      7266        65  OSM       N             -18.7985636680      -28.2725083403       22.5842324381  MEMB      65              0.0000000000
      7267        65  OSM       C15           -18.0734702298      -27.9068693970       21.2819436495  MEMB      65              0.0000000000
      7268        65  OSM       H15A          -18.7460597743      -28.1242375567       20.4653811537  MEMB      65              0.0000000000
      7269        65  OSM       H15B          -17.2216437949      -28.5681651724       21.2229520213  MEMB      65              0.0000000000
      7270        65  OSM       H15C          -17.7104160989      -26.8931644071       21.3655723126  MEMB      65              0.0000000000
      7271        65  OSM       C14           -19.2410923683      -29.7415776455       22.6191449568  MEMB      65              0.0000000000
      7272        65  OSM       H14A          -19.7618384430      -30.0825694546       21.7365645809  MEMB      65              0.0000000000
      7273        65  OSM       H14B          -19.6908589338      -29.9475628049       23.5791866122  MEMB      65              0.0000000000
      7274        65  OSM       H14C          -18.2689615015      -30.2119731409       22.6096788121  MEMB      65              0.0000000000
      7275        65  OSM       C13           -17.9769973013      -28.0648230710       23.8682660622  MEMB      65              0.0000000000
      7276        65  OSM       H13A          -17.7257729217      -27.0211236349       23.9864937495  MEMB      65              0.0000000000
      7277        65  OSM       H13B          -17.0944325226      -28.6820409710       23.7875091235  MEMB      65              0.0000000000
      7278        65  OSM       H13C          -18.5118412602      -28.4049694341       24.7427044008  MEMB      65              0.0000000000
      7279        65  OSM       C12           -20.1102777669      -27.4083140368       22.6165773149  MEMB      65              0.0000000000
      7280        65  OSM       H12A          -19.8711652833      -26.3606090630       22.7239993974  MEMB      65              0.0000000000
      7281        65  OSM       H12B          -20.5392838880      -27.6373190732       23.5808960603  MEMB      65              0.0000000000
      7282        65  OSM       C11           -21.1368119030      -27.5925568942       21.4305461980  MEMB      65              0.0000000000
      7283        65  OSM       H11A          -21.9109482417      -26.8293654948       21.6598338434  MEMB      65              0.0000000000
      7284        65  OSM       H11B          -21.6127813912      -28.5946932282       21.4896796846  MEMB      65              0.0000000000
      7285        65  OSM       P             -20.9879657231      -26.0546725543       19.3369677503  MEMB      65              0.0000000000
      7286        65  OSM       O13           -21.4680699177      -24.9559769449       20.2296364433  MEMB      65              0.0000000000
      7287        65  OSM       O14           -19.9421035117      -25.7811024039       18.3831751282  MEMB      65              0.0000000000
      7288        65  OSM       O11           -22.1845981268      -26.5899989242       18.5152049717  MEMB      65              0.0000000000
      7289        65  OSM       O12           -20.6665353828      -27.4284234841       20.1343050819  MEMB      65              0.0000000000
      7290        65  OSM       C1S           -22.0934406503      -27.8567916830       17.8299736253  MEMB      65              0.0000000000
      7291        65  OSM       H1S           -22.9782471786      -28.5010643214       18.0206338773  MEMB      65              0.0000000000
      7292        65  OSM       H1T           -21.3080118727      -28.5619781167       18.1765782215  MEMB      65              0.0000000000
      7293        65  OSM       NF            -20.3936892086      -27.8419867360       15.9977683425  MEMB      65              0.0000000000
      7294        65  OSM       HNF           -20.1406666628      -26.9511391055       15.6284729387  MEMB      65              0.0000000000
      7295        65  OSM       C2S           -21.8308057953      -27.7670578079       16.2670983772  MEMB      65              0.0000000000
      7296        65  OSM       H2S           -22.2428629324      -28.6913091736       15.8085253033  MEMB      65              0.0000000000
      7297        65  OSM       C3S           -22.4709931971      -26.5086062039       15.7275394620  MEMB      65              0.0000000000
      7298        65  OSM       H3S           -22.0600058085      -25.5924255361       16.2029586530  MEMB      65              0.0000000000
      7299        65  OSM       O3            -23.8278926921      -26.6571446837       16.0606296347  MEMB      65              0.0000000000
      7300        65  OSM       HO3           -23.9641811077      -27.5763002343       16.3018318733  MEMB      65              0.0000000000
      7301        65  OSM       C4S           -22.2138288632      -26.2810461204       14.2498731764  MEMB      65              0.0000000000
      7302        65  OSM       H4S           -21.3389971362      -25.6407491983       14.0636218536  MEMB      65              0.0000000000
      7303        65  OSM       C5S           -22.9977656676      -26.6737949580       13.1499854953  MEMB      65              0.0000000000
      7304        65  OSM       H5S           -23.9060983913      -27.2352859353       13.4139167903  MEMB      65              0.0000000000
      7305        65  OSM       C6S           -22.9041129281      -26.4900508074       11.6257026139  MEMB      65              0.0000000000
      7306        65  OSM       H6S           -23.8923473053      -26.1577772013       11.2418949678  MEMB      65              0.0000000000
      7307        65  OSM       H6T           -22.6456841582      -27.4341337492       11.1001150128  MEMB      65              0.0000000000
      7308        65  OSM       C7S           -21.9564758175      -25.4026082719       11.1868377057  MEMB      65              0.0000000000
      7309        65  OSM       H7S           -20.9423602243      -25.6825945210       11.5439067379  MEMB      65              0.0000000000
      7310        65  OSM       H7T           -22.1976380288      -24.3610940398       11.4891781112  MEMB      65              0.0000000000
      7311        65  OSM       C8S           -21.9510625696      -25.5306397780        9.6476020779  MEMB      65              0.0000000000
      7312        65  OSM       H8S           -22.9705222346      -25.3345785678        9.2518969692  MEMB      65              0.0000000000
      7313        65  OSM       H8T           -21.7542225850      -26.5961810424        9.4022523317  MEMB      65              0.0000000000
      7314        65  OSM       C9S           -20.8969885888      -24.6486404592        8.9604679468  MEMB      65              0.0000000000
      7315        65  OSM       H9S           -19.9814319654      -24.5911936375        9.5871868655  MEMB      65              0.0000000000
      7316        65  OSM       H9T           -21.1637696612      -23.5701469014        8.9594529608  MEMB      65              0.0000000000
      7317        65  OSM       C10S          -20.3838073945      -25.0606139806        7.6330116557  MEMB      65              0.0000000000
      7318        65  OSM       H10S          -21.2703691403      -25.1233028406        6.9663789201  MEMB      65              0.0000000000
      7319        65  OSM       H10T          -19.9677535879      -26.0907674329        7.6350020587  MEMB      65              0.0000000000
      7320        65  OSM       C11S          -19.2315059854      -24.1692522567        7.1762001160  MEMB      65              0.0000000000
      7321        65  OSM       H11S          -18.3395863910      -24.2727457334        7.8304857318  MEMB      65              0.0000000000
      7322        65  OSM       H11T          -19.5811220306      -23.1210588218        7.2918738878  MEMB      65              0.0000000000
      7323        65  OSM       C12S          -18.7831672427      -24.3149814648        5.7422754030  MEMB      65              0.0000000000
      7324        65  OSM       H12S          -18.4967722322      -23.3505844657        5.2708545745  MEMB      65              0.0000000000
      7325        65  OSM       H12T          -19.7067091768      -24.5803288645        5.1846174040  MEMB      65              0.0000000000
      7326        65  OSM       C13S          -17.7809718964      -25.4703679020        5.5761128085  MEMB      65              0.0000000000
      7327        65  OSM       H13S          -18.0217990949      -26.3810681038        6.1651364316  MEMB      65              0.0000000000
      7328        65  OSM       H13T          -16.7654752532      -25.0394621974        5.7080506990  MEMB      65              0.0000000000
      7329        65  OSM       C14S          -17.7325893427      -25.8808127496        4.0809548668  MEMB      65              0.0000000000
      7330        65  OSM       H14S          -17.3780126770      -24.9810262615        3.5341643070  MEMB      65              0.0000000000
      7331        65  OSM       H14T          -18.7458637700      -26.0934885091        3.6780101885  MEMB      65              0.0000000000
      7332        65  OSM       C15S          -16.7270546786      -27.0207206484        3.8656884706  MEMB      65              0.0000000000
      7333        65  OSM       H15S          -17.2256535828      -27.8468890238        4.4162935455  MEMB      65              0.0000000000
      7334        65  OSM       H15T          -15.7453636065      -26.6562294720        4.2368348280  MEMB      65              0.0000000000
      7335        65  OSM       C16S          -16.6072529797      -27.3241547412        2.3227743454  MEMB      65              0.0000000000
      7336        65  OSM       H16S          -15.5686198266      -27.5594663014        2.0062434842  MEMB      65              0.0000000000
      7337        65  OSM       H16T          -16.9162193769      -26.4525126971        1.7070626680  MEMB      65              0.0000000000
      7338        65  OSM       C17S          -17.6453486179      -28.4623273600        1.7841979531  MEMB      65              0.0000000000
      7339        65  OSM       H17S          -18.5038604107      -28.5595632497        2.4826422741  MEMB      65              0.0000000000
      7340        65  OSM       H17T          -17.1677083219      -29.4589430048        1.8979430006  MEMB      65              0.0000000000
      7341        65  OSM       C18S          -18.2879254645      -28.2288259459        0.4699090747  MEMB      65              0.0000000000
      7342        65  OSM       H18S          -18.9927850589      -29.0521950665        0.2258650652  MEMB      65              0.0000000000
      7343        65  OSM       H18T          -17.5061729515      -28.1652088489       -0.3169436171  MEMB      65              0.0000000000
      7344        65  OSM       H18U          -18.9479043227      -27.3391750349        0.3846441286  MEMB      65              0.0000000000
      7345        65  OSM       C1F           -19.5435455132      -28.8419192298       16.2483843229  MEMB      65              0.0000000000
      7346        65  OSM       OF            -19.9847044269      -29.9617710682       16.6684604187  MEMB      65              0.0000000000
      7347        65  OSM       C2F           -18.1658114568      -28.5626964758       15.9596778628  MEMB      65              0.0000000000
      7348        65  OSM       H2F           -17.4505853383      -28.7770764124       16.7823645816  MEMB      65              0.0000000000
      7349        65  OSM       H2G           -18.0671010587      -27.4970008751       15.6615663898  MEMB      65              0.0000000000
      7350        65  OSM       C3F           -17.4994030871      -29.3102330693       14.7788505977  MEMB      65              0.0000000000
      7351        65  OSM       H3F           -17.7219557798      -30.3897546570       14.9182224112  MEMB      65              0.0000000000
      7352        65  OSM       H3G           -16.4016633056      -29.1612064835       14.6947103719  MEMB      65              0.0000000000
      7353        65  OSM       C4F           -18.1251566319      -29.0103578530       13.3869736295  MEMB      65              0.0000000000
      7354        65  OSM       H4F           -19.2249130258      -29.1680187563       13.3867309752  MEMB      65              0.0000000000
      7355        65  OSM       H4G           -17.7483310771      -29.6833601106       12.5873538898  MEMB      65              0.0000000000
      7356        65  OSM       C5F           -18.0391220061      -27.5331853433       13.0344040213  MEMB      65              0.0000000000
      7357        65  OSM       H5F           -17.0022368205      -27.1364017696       13.0762721476  MEMB      65              0.0000000000
      7358        65  OSM       H5G           -18.6676522921      -26.9024300323       13.6987974477  MEMB      65              0.0000000000
      7359        65  OSM       C6F           -18.5499544441      -27.3101332852       11.5764416501  MEMB      65              0.0000000000
      7360        65  OSM       H6F           -18.7230487132      -26.2183509195       11.4652179722  MEMB      65              0.0000000000
      7361        65  OSM       H6G           -19.5360916558      -27.8155273422       11.4962464044  MEMB      65              0.0000000000
      7362        65  OSM       C7F           -17.6735182580      -27.9492466450       10.5649037017  MEMB      65              0.0000000000
      7363        65  OSM       H7F           -17.5620063203      -28.9959228101       10.9203688387  MEMB      65              0.0000000000
      7364        65  OSM       H7G           -16.7564637671      -27.3221016586       10.5603034020  MEMB      65              0.0000000000
      7365        65  OSM       C8F           -18.3957879304      -27.8913056747        9.2497693305  MEMB      65              0.0000000000
      7366        65  OSM       H8F           -18.7594528082      -26.8595468003        9.0560103375  MEMB      65              0.0000000000
      7367        65  OSM       H8G           -19.2965578570      -28.5291717468        9.3765025225  MEMB      65              0.0000000000
      7368        65  OSM       C9F           -17.5763600140      -28.4241829960        8.1102844937  MEMB      65              0.0000000000
      7369        65  OSM       H9F           -16.6857575704      -27.7952185013        7.9645766362  MEMB      65              0.0000000000
      7370        65  OSM       C10F          -17.7337636755      -29.4010532148        7.2820735280  MEMB      65              0.0000000000
      7371        65  OSM       H10F          -16.9725744585      -29.4328066188        6.4886110005  MEMB      65              0.0000000000
      7372        65  OSM       C11F          -18.8758244362      -30.3782773161        7.2583048378  MEMB      65              0.0000000000
      7373        65  OSM       H11F          -19.6424648350      -30.1113733858        8.0168203829  MEMB      65              0.0000000000
      7374        65  OSM       H11G          -18.5738265344      -31.4346135973        7.4234459006  MEMB      65              0.0000000000
      7375        65  OSM       C12F          -19.5562626280      -30.4154548387        5.8489162100  MEMB      65              0.0000000000
      7376        65  OSM       H12F          -20.4160228001      -31.1184910217        5.8193578989  MEMB      65              0.0000000000
      7377        65  OSM       H12G          -18.7639300862      -30.6654181070        5.1113195281  MEMB      65              0.0000000000
      7378        65  OSM       C13F          -20.1018020360      -29.0666174652        5.4302183447  MEMB      65              0.0000000000
      7379        65  OSM       H13F          -19.3320480295      -28.3656300931        5.0423825446  MEMB      65              0.0000000000
      7380        65  OSM       H13G          -20.7040217045      -28.5626016032        6.2161073253  MEMB      65              0.0000000000
      7381        65  OSM       C14F          -21.0067791198      -29.1851314317        4.2149347229  MEMB      65              0.0000000000
      7382        65  OSM       H14F          -21.7336996895      -30.0052318927        4.3975358159  MEMB      65              0.0000000000
      7383        65  OSM       H14G          -20.3429071529      -29.4542917475        3.3657301627  MEMB      65              0.0000000000
      7384        65  OSM       C15F          -21.6459302399      -27.8043330116        3.8715729481  MEMB      65              0.0000000000
      7385        65  OSM       H15F          -20.8665455170      -27.0687006433        3.5787841918  MEMB      65              0.0000000000
      7386        65  OSM       H15G          -22.0680199686      -27.3968784062        4.8150458312  MEMB      65              0.0000000000
      7387        65  OSM       C16F          -22.7057501152      -27.8559397764        2.8891728118  MEMB      65              0.0000000000
      7388        65  OSM       H16F          -22.9912643306      -26.8093468316        2.6494946389  MEMB      65              0.0000000000
      7389        65  OSM       H16G          -23.7316996442      -28.2013686374        3.1390287606  MEMB      65              0.0000000000
      7390        65  OSM       C17F          -22.2897460168      -28.4410790011        1.5043990845  MEMB      65              0.0000000000
      7391        65  OSM       H17F          -21.8721472880      -29.4539169715        1.6890393698  MEMB      65              0.0000000000
      7392        65  OSM       H17G          -21.4184378094      -27.9414533403        1.0295135241  MEMB      65              0.0000000000
      7393        65  OSM       C18F          -23.4671447535      -28.4579673847        0.5156949747  MEMB      65              0.0000000000
      7394        65  OSM       H18F          -24.2570017407      -29.1904509331        0.7875676201  MEMB      65              0.0000000000
      7395        65  OSM       H18G          -22.9659680906      -28.7368864842       -0.4358011577  MEMB      65              0.0000000000
      7396        65  OSM       H18H          -23.9434482267      -27.4648596752        0.3701165146  MEMB      65              0.0000000000
      7397        66  CHL1      C3             34.1821434815        5.6210253118       17.4842750000  MEMB      66              0.0000000000
      7398        66  CHL1      H3             35.1982689828        5.3073400458       17.8058450000  MEMB      66              0.0000000000
      7399        66  CHL1      O3             33.2938009185        5.3556461282       18.5157250000  MEMB      66              0.0000000000
      7400        66  CHL1      H3'            33.7009360757        5.8445755978       19.2346050000  MEMB      66              0.0000000000
      7401        66  CHL1      C4             34.1861934971        7.1444322345       17.1318450000  MEMB      66              0.0000000000
      7402        66  CHL1      H4A            33.1343753792        7.4716400011       16.9871550000  MEMB      66              0.0000000000
      7403        66  CHL1      H4B            34.6044682760        7.7420581863       17.9698250000  MEMB      66              0.0000000000
      7404        66  CHL1      C5             34.9286111567        7.5376783955       15.8443250000  MEMB      66              0.0000000000
      7405        66  CHL1      C6             35.9269490435        8.4776259208       15.7981250000  MEMB      66              0.0000000000
      7406        66  CHL1      H6             36.2213618805        9.0661540803       16.6795750000  MEMB      66              0.0000000000
      7407        66  CHL1      C7             36.6697433739        8.9418043814       14.5442650000  MEMB      66              0.0000000000
      7408        66  CHL1      H7A            36.7584372966       10.0490785681       14.5647350000  MEMB      66              0.0000000000
      7409        66  CHL1      H7B            37.7020725463        8.5334084167       14.5015950000  MEMB      66              0.0000000000
      7410        66  CHL1      C8             35.8658382574        8.4127454167       13.3510550000  MEMB      66              0.0000000000
      7411        66  CHL1      H8             34.9407977945        9.0119467023       13.2110950000  MEMB      66              0.0000000000
      7412        66  CHL1      C14            36.7439829960        8.5842319122       12.1149150000  MEMB      66              0.0000000000
      7413        66  CHL1      H14            37.5816666134        7.8554046101       12.1527650000  MEMB      66              0.0000000000
      7414        66  CHL1      C15            37.3090916745       10.0381870448       11.8539250000  MEMB      66              0.0000000000
      7415        66  CHL1      H15A           36.4855190179       10.7298447358       12.1325950000  MEMB      66              0.0000000000
      7416        66  CHL1      H15B           38.2826900944       10.3089483253       12.3155550000  MEMB      66              0.0000000000
      7417        66  CHL1      C16            37.4840260252       10.1143861245       10.3270450000  MEMB      66              0.0000000000
      7418        66  CHL1      H16A           36.8182657436       10.8388195427        9.8110350000  MEMB      66              0.0000000000
      7419        66  CHL1      H16B           38.5832828377       10.1324621311       10.1669450000  MEMB      66              0.0000000000
      7420        66  CHL1      C17            37.0219745864        8.7202330775        9.7450150000  MEMB      66              0.0000000000
      7421        66  CHL1      H17            37.9480055227        8.1119757739        9.8275450000  MEMB      66              0.0000000000
      7422        66  CHL1      C13            36.0181298612        8.1297965976       10.8319850000  MEMB      66              0.0000000000
      7423        66  CHL1      C18            34.6806741454        8.7935761471       10.5886550000  MEMB      66              0.0000000000
      7424        66  CHL1      H18A           34.6646253454        9.8971909561       10.7155450000  MEMB      66              0.0000000000
      7425        66  CHL1      H18B           34.3008221350        8.5185370354        9.5814850000  MEMB      66              0.0000000000
      7426        66  CHL1      H18C           34.0372187302        8.4601282860       11.4307350000  MEMB      66              0.0000000000
      7427        66  CHL1      C12            35.9374254629        6.5743300285       10.9105250000  MEMB      66              0.0000000000
      7428        66  CHL1      H12A           35.3909448801        6.1101902014       10.0618450000  MEMB      66              0.0000000000
      7429        66  CHL1      H12B           36.9765335461        6.1834449424       10.8680950000  MEMB      66              0.0000000000
      7430        66  CHL1      C11            35.2448297222        6.1318949736       12.1885650000  MEMB      66              0.0000000000
      7431        66  CHL1      H11A           34.1679148318        6.2652103489       11.9501950000  MEMB      66              0.0000000000
      7432        66  CHL1      H11B           35.3690736688        5.0349351675       12.3133250000  MEMB      66              0.0000000000
      7433        66  CHL1      C9             35.5775416477        6.9586601627       13.5014750000  MEMB      66              0.0000000000
      7434        66  CHL1      H9             36.5144054120        6.4563308981       13.8243750000  MEMB      66              0.0000000000
      7435        66  CHL1      C10            34.5436346258        6.6729841844       14.6048450000  MEMB      66              0.0000000000
      7436        66  CHL1      C19            33.1058014522        7.0701374851       14.1094450000  MEMB      66              0.0000000000
      7437        66  CHL1      H19A           32.6676694760        6.3365103542       13.3994050000  MEMB      66              0.0000000000
      7438        66  CHL1      H19B           32.4347049077        7.0687181590       14.9948450000  MEMB      66              0.0000000000
      7439        66  CHL1      H19C           33.1248482472        7.9639963129       13.4499150000  MEMB      66              0.0000000000
      7440        66  CHL1      C1             34.5616318783        5.1691089735       14.9799450000  MEMB      66              0.0000000000
      7441        66  CHL1      H1A            34.1182108689        4.6495096582       14.1037550000  MEMB      66              0.0000000000
      7442        66  CHL1      H1B            35.5967728842        4.7782140172       15.0800250000  MEMB      66              0.0000000000
      7443        66  CHL1      C2             33.7810982828        4.8366886716       16.2688950000  MEMB      66              0.0000000000
      7444        66  CHL1      H2A            34.0126920309        3.8263362941       16.6687350000  MEMB      66              0.0000000000
      7445        66  CHL1      H2B            32.6783755422        4.8595443073       16.1354850000  MEMB      66              0.0000000000
      7446        66  CHL1      C20            36.5318451315        8.8316136161        8.2661250000  MEMB      66              0.0000000000
      7447        66  CHL1      H20            35.6720013586        9.5321589574        8.2011050000  MEMB      66              0.0000000000
      7448        66  CHL1      C21            36.0971858851        7.4869887106        7.6858750000  MEMB      66              0.0000000000
      7449        66  CHL1      H21A           36.9626192260        6.8104399447        7.8520850000  MEMB      66              0.0000000000
      7450        66  CHL1      H21B           35.9123015441        7.4961251721        6.5904050000  MEMB      66              0.0000000000
      7451        66  CHL1      H21C           35.1804748284        7.1026770073        8.1821150000  MEMB      66              0.0000000000
      7452        66  CHL1      C22            37.6094538456        9.4802201412        7.4119550000  MEMB      66              0.0000000000
      7453        66  CHL1      H22A           37.1510371156        9.6782519555        6.4194950000  MEMB      66              0.0000000000
      7454        66  CHL1      H22B           37.7927836796       10.5163329922        7.7685950000  MEMB      66              0.0000000000
      7455        66  CHL1      C23            38.9682414785        8.6548369487        7.4097150000  MEMB      66              0.0000000000
      7456        66  CHL1      H23A           39.3422221684        8.5685858131        8.4523150000  MEMB      66              0.0000000000
      7457        66  CHL1      H23B           38.7279081218        7.6006174333        7.1543950000  MEMB      66              0.0000000000
      7458        66  CHL1      C24            40.1232415891        9.2864068940        6.6150450000  MEMB      66              0.0000000000
      7459        66  CHL1      H24A           40.9474506436        8.6153931366        6.2913850000  MEMB      66              0.0000000000
      7460        66  CHL1      H24B           39.7411175166        9.7796828710        5.6958150000  MEMB      66              0.0000000000
      7461        66  CHL1      C25            40.8472781547       10.3519800982        7.5002550000  MEMB      66              0.0000000000
      7462        66  CHL1      H25            40.0242653440       10.9862477877        7.8935250000  MEMB      66              0.0000000000
      7463        66  CHL1      C26            41.6951957995        9.8022187311        8.6846050000  MEMB      66              0.0000000000
      7464        66  CHL1      H26A           42.3957577629        9.0125626117        8.3382350000  MEMB      66              0.0000000000
      7465        66  CHL1      H26B           42.2076157363       10.6456929111        9.1947850000  MEMB      66              0.0000000000
      7466        66  CHL1      H26C           41.0121135955        9.3469232011        9.4332350000  MEMB      66              0.0000000000
      7467        66  CHL1      C27            41.7756516318       11.2031276241        6.5700250000  MEMB      66              0.0000000000
      7468        66  CHL1      H27A           42.0955540737       12.1344609960        7.0844350000  MEMB      66              0.0000000000
      7469        66  CHL1      H27B           42.6604205141       10.5678252803        6.3511650000  MEMB      66              0.0000000000
      7470        66  CHL1      H27C           41.1904922788       11.4461520378        5.6574150000  MEMB      66              0.0000000000
      7471        67  OSM       N             -28.2856324210      -14.3234495776       20.8201415303  MEMB      67              0.0000000000
      7472        67  OSM       C15           -26.9837396045      -14.0847371031       20.0349107907  MEMB      67              0.0000000000
      7473        67  OSM       H15A          -26.9075437891      -14.7676847012       19.2017380287  MEMB      67              0.0000000000
      7474        67  OSM       H15B          -26.1554043709      -14.1185797653       20.7270926468  MEMB      67              0.0000000000
      7475        67  OSM       H15C          -26.9694873415      -13.0728967710       19.6575835043  MEMB      67              0.0000000000
      7476        67  OSM       C14           -28.1530798631      -15.5944706933       21.5983494336  MEMB      67              0.0000000000
      7477        67  OSM       H14A          -27.4452399587      -15.4638977883       22.4035285896  MEMB      67              0.0000000000
      7478        67  OSM       H14B          -27.8606329604      -16.4107378095       20.9544683659  MEMB      67              0.0000000000
      7479        67  OSM       H14C          -29.1277928791      -15.7407054182       22.0398807312  MEMB      67              0.0000000000
      7480        67  OSM       C13           -28.6637986511      -13.1869729215       21.7317506763  MEMB      67              0.0000000000
      7481        67  OSM       H13A          -29.7171588338      -13.2842552873       21.9493938639  MEMB      67              0.0000000000
      7482        67  OSM       H13B          -28.5344613284      -12.2698924516       21.1762014515  MEMB      67              0.0000000000
      7483        67  OSM       H13C          -28.0040329448      -13.2342752206       22.5854904444  MEMB      67              0.0000000000
      7484        67  OSM       C12           -29.4414265504      -14.4968934977       19.8185369002  MEMB      67              0.0000000000
      7485        67  OSM       H12A          -29.3562401811      -15.4773931909       19.3738306490  MEMB      67              0.0000000000
      7486        67  OSM       H12B          -29.3568343352      -13.7312237535       19.0615731238  MEMB      67              0.0000000000
      7487        67  OSM       C11           -30.8477494271      -14.4226124857       20.4261257452  MEMB      67              0.0000000000
      7488        67  OSM       H11A          -31.4509404451      -14.5758727465       19.5058035672  MEMB      67              0.0000000000
      7489        67  OSM       H11B          -31.1300644132      -13.4213069054       20.8160057163  MEMB      67              0.0000000000
      7490        67  OSM       P             -32.1933383392      -16.5744678293       21.3508829310  MEMB      67              0.0000000000
      7491        67  OSM       O13           -31.8394836014      -17.6566397642       22.2798929606  MEMB      67              0.0000000000
      7492        67  OSM       O14           -33.5130457081      -15.9286369014       21.5177988593  MEMB      67              0.0000000000
      7493        67  OSM       O11           -32.0205842395      -17.1091859184       19.9391162801  MEMB      67              0.0000000000
      7494        67  OSM       O12           -31.0636138867      -15.4088346965       21.4824938922  MEMB      67              0.0000000000
      7495        67  OSM       C1S           -31.0707437211      -18.2205818791       19.6498296399  MEMB      67              0.0000000000
      7496        67  OSM       H1S           -31.4808909697      -19.1791492775       20.0335601484  MEMB      67              0.0000000000
      7497        67  OSM       H1T           -30.0719586666      -17.9328378850       20.0421980875  MEMB      67              0.0000000000
      7498        67  OSM       NF            -29.7344578239      -17.4807231316       17.6717012070  MEMB      67              0.0000000000
      7499        67  OSM       HNF           -29.9995226374      -16.6860602853       17.1310898113  MEMB      67              0.0000000000
      7500        67  OSM       C2S           -30.8575990415      -18.3112559808       18.0575884942  MEMB      67              0.0000000000
      7501        67  OSM       H2S           -30.5964755037      -19.3575378519       17.7903241047  MEMB      67              0.0000000000
      7502        67  OSM       C3S           -32.1754605001      -17.8629892550       17.3956560588  MEMB      67              0.0000000000
      7503        67  OSM       H3S           -32.6129251822      -16.8891030367       17.7030505349  MEMB      67              0.0000000000
      7504        67  OSM       O3            -33.2699401481      -18.7326784145       17.7082622906  MEMB      67              0.0000000000
      7505        67  OSM       HO3           -32.9815862227      -19.3484307925       18.3859801086  MEMB      67              0.0000000000
      7506        67  OSM       C4S           -31.9978089978      -17.8844358939       15.8578317771  MEMB      67              0.0000000000
      7507        67  OSM       H4S           -31.8994183520      -18.8327223974       15.3091314245  MEMB      67              0.0000000000
      7508        67  OSM       C5S           -31.8286526083      -16.7913069377       15.0935931093  MEMB      67              0.0000000000
      7509        67  OSM       H5S           -31.8939323305      -15.8677885312       15.6876065883  MEMB      67              0.0000000000
      7510        67  OSM       C6S           -31.6866514890      -16.8691715841       13.5904631529  MEMB      67              0.0000000000
      7511        67  OSM       H6S           -30.7950590517      -16.2736603560       13.2993443549  MEMB      67              0.0000000000
      7512        67  OSM       H6T           -32.5274328593      -16.2902322842       13.1520146265  MEMB      67              0.0000000000
      7513        67  OSM       C7S           -31.8156700674      -18.1924025869       12.9332165131  MEMB      67              0.0000000000
      7514        67  OSM       H7S           -32.8182038486      -18.6514013603       13.0694775667  MEMB      67              0.0000000000
      7515        67  OSM       H7T           -30.9287695454      -18.8488536426       13.0628338408  MEMB      67              0.0000000000
      7516        67  OSM       C8S           -31.8161308227      -17.9563950999       11.4244821637  MEMB      67              0.0000000000
      7517        67  OSM       H8S           -31.3491766069      -18.8597586884       10.9770357227  MEMB      67              0.0000000000
      7518        67  OSM       H8T           -31.1488250242      -17.0894596656       11.2309701965  MEMB      67              0.0000000000
      7519        67  OSM       C9S           -33.2775501141      -17.7323276431       10.8700701023  MEMB      67              0.0000000000
      7520        67  OSM       H9S           -33.8442621150      -17.3723575409       11.7552705805  MEMB      67              0.0000000000
      7521        67  OSM       H9T           -33.8196940833      -18.6725463871       10.6326046329  MEMB      67              0.0000000000
      7522        67  OSM       C10S          -33.2945668319      -16.7057777687        9.7360930396  MEMB      67              0.0000000000
      7523        67  OSM       H10S          -33.0463076695      -15.7366438275       10.2192787309  MEMB      67              0.0000000000
      7524        67  OSM       H10T          -34.3156378762      -16.6227897279        9.3061541926  MEMB      67              0.0000000000
      7525        67  OSM       C11S          -32.2520703091      -16.9033977990        8.6220499836  MEMB      67              0.0000000000
      7526        67  OSM       H11S          -32.3289615722      -17.9922364250        8.4150725163  MEMB      67              0.0000000000
      7527        67  OSM       H11T          -31.1843893083      -16.7766832808        8.9019101510  MEMB      67              0.0000000000
      7528        67  OSM       C12S          -32.7045012246      -16.2008884381        7.3172322860  MEMB      67              0.0000000000
      7529        67  OSM       H12S          -33.7470287094      -16.5583438236        7.1769355021  MEMB      67              0.0000000000
      7530        67  OSM       H12T          -32.0859666984      -16.5699860797        6.4713584822  MEMB      67              0.0000000000
      7531        67  OSM       C13S          -32.6962507552      -14.6928761859        7.3197078284  MEMB      67              0.0000000000
      7532        67  OSM       H13S          -31.7541026887      -14.2473159331        7.7046155708  MEMB      67              0.0000000000
      7533        67  OSM       H13T          -33.4127156727      -14.4862728228        8.1433054879  MEMB      67              0.0000000000
      7534        67  OSM       C14S          -32.9497756882      -13.9570430826        6.0366220800  MEMB      67              0.0000000000
      7535        67  OSM       H14S          -33.2015361950      -12.8899893925        6.2164394105  MEMB      67              0.0000000000
      7536        67  OSM       H14T          -33.8217555438      -14.4427630396        5.5487208467  MEMB      67              0.0000000000
      7537        67  OSM       C15S          -31.8658336552      -14.0566270268        4.9705408673  MEMB      67              0.0000000000
      7538        67  OSM       H15S          -31.8939794166      -15.0848246102        4.5506142411  MEMB      67              0.0000000000
      7539        67  OSM       H15T          -30.8197251856      -13.8654692413        5.2921569235  MEMB      67              0.0000000000
      7540        67  OSM       C16S          -32.0828390447      -13.0694585102        3.7615391477  MEMB      67              0.0000000000
      7541        67  OSM       H16S          -32.1159796319      -12.0528139825        4.2083684963  MEMB      67              0.0000000000
      7542        67  OSM       H16T          -32.9971245009      -13.3897260859        3.2176338442  MEMB      67              0.0000000000
      7543        67  OSM       C17S          -30.8889463346      -13.0624428358        2.8054403141  MEMB      67              0.0000000000
      7544        67  OSM       H17S          -29.8606027871      -12.9634244739        3.2141283452  MEMB      67              0.0000000000
      7545        67  OSM       H17T          -31.0032008936      -12.1355708984        2.2036298829  MEMB      67              0.0000000000
      7546        67  OSM       C18S          -30.9155457924      -14.1793960041        1.7344169998  MEMB      67              0.0000000000
      7547        67  OSM       H18S          -31.8796353360      -14.4412952895        1.2483500412  MEMB      67              0.0000000000
      7548        67  OSM       H18T          -30.6537254944      -15.1431911339        2.2211097182  MEMB      67              0.0000000000
      7549        67  OSM       H18U          -30.0550135134      -14.0914726156        1.0372267703  MEMB      67              0.0000000000
      7550        67  OSM       C1F           -28.4315215228      -17.7920465410       17.7645175586  MEMB      67              0.0000000000
      7551        67  OSM       OF            -27.8841079871      -18.6278737208       18.5177179241  MEMB      67              0.0000000000
      7552        67  OSM       C2F           -27.4956525515      -16.9977309465       16.8527993670  MEMB      67              0.0000000000
      7553        67  OSM       H2F           -26.6593975974      -16.5120712457       17.3997305248  MEMB      67              0.0000000000
      7554        67  OSM       H2G           -28.1173642702      -16.2435722012       16.3245568835  MEMB      67              0.0000000000
      7555        67  OSM       C3F           -26.7772285384      -17.9751732341       15.8970073735  MEMB      67              0.0000000000
      7556        67  OSM       H3F           -26.2088238680      -18.8213144484       16.3389147560  MEMB      67              0.0000000000
      7557        67  OSM       H3G           -26.0159983885      -17.3669849179       15.3631939391  MEMB      67              0.0000000000
      7558        67  OSM       C4F           -27.6475043455      -18.5475356756       14.7850968320  MEMB      67              0.0000000000
      7559        67  OSM       H4F           -28.3645326365      -17.7259256158       14.5726157623  MEMB      67              0.0000000000
      7560        67  OSM       H4G           -28.2442657521      -19.4475924576       15.0460468150  MEMB      67              0.0000000000
      7561        67  OSM       C5F           -26.8230834437      -18.9797228977       13.5914092218  MEMB      67              0.0000000000
      7562        67  OSM       H5F           -27.6253598486      -19.4260634910       12.9657464735  MEMB      67              0.0000000000
      7563        67  OSM       H5G           -26.1165606383      -19.7975261218       13.8489839301  MEMB      67              0.0000000000
      7564        67  OSM       C6F           -26.1054882464      -17.8525782925       12.8190664972  MEMB      67              0.0000000000
      7565        67  OSM       H6F           -25.7200292901      -18.4432160812       11.9606443749  MEMB      67              0.0000000000
      7566        67  OSM       H6G           -25.2886922013      -17.3636011425       13.3918379204  MEMB      67              0.0000000000
      7567        67  OSM       C7F           -27.0426282395      -16.8623076658       12.0333589055  MEMB      67              0.0000000000
      7568        67  OSM       H7F           -27.4944964434      -16.2319815641       12.8288625354  MEMB      67              0.0000000000
      7569        67  OSM       H7G           -27.8009269421      -17.4581531194       11.4817502362  MEMB      67              0.0000000000
      7570        67  OSM       C8F           -26.3087432164      -15.8591750771       11.1317109568  MEMB      67              0.0000000000
      7571        67  OSM       H8F           -25.7923191200      -16.4401127379       10.3378985995  MEMB      67              0.0000000000
      7572        67  OSM       H8G           -25.6761267247      -15.2606416179       11.8215476566  MEMB      67              0.0000000000
      7573        67  OSM       C9F           -27.1707027961      -14.8474186864       10.4179771991  MEMB      67              0.0000000000
      7574        67  OSM       H9F           -27.6682091631      -14.1720443697       11.1295644738  MEMB      67              0.0000000000
      7575        67  OSM       C10F          -27.3988296098      -14.5317769639        9.1480242482  MEMB      67              0.0000000000
      7576        67  OSM       H10F          -28.1019437428      -13.7118055310        8.9399918619  MEMB      67              0.0000000000
      7577        67  OSM       C11F          -26.7885590714      -15.2146075267        7.9766566355  MEMB      67              0.0000000000
      7578        67  OSM       H11F          -25.9722906937      -15.9083186586        8.2712606816  MEMB      67              0.0000000000
      7579        67  OSM       H11G          -26.3328472064      -14.5546436265        7.2078286359  MEMB      67              0.0000000000
      7580        67  OSM       C12F          -27.7376575298      -16.0584787760        7.0667320491  MEMB      67              0.0000000000
      7581        67  OSM       H12F          -28.6020737768      -15.4266028956        6.7703561752  MEMB      67              0.0000000000
      7582        67  OSM       H12G          -28.1600562329      -16.8321052362        7.7430469999  MEMB      67              0.0000000000
      7583        67  OSM       C13F          -27.0475550852      -16.5329725949        5.8130849580  MEMB      67              0.0000000000
      7584        67  OSM       H13F          -26.2298418782      -17.1471760937        6.2471585220  MEMB      67              0.0000000000
      7585        67  OSM       H13G          -26.6452690452      -15.6433903105        5.2828678092  MEMB      67              0.0000000000
      7586        67  OSM       C14F          -27.8518833464      -17.3938159323        4.8494653683  MEMB      67              0.0000000000
      7587        67  OSM       H14F          -28.4813774433      -16.6920327155        4.2616235562  MEMB      67              0.0000000000
      7588        67  OSM       H14G          -28.4536595647      -18.0432950533        5.5205576775  MEMB      67              0.0000000000
      7589        67  OSM       C15F          -27.1501397081      -18.1935064918        3.7830160618  MEMB      67              0.0000000000
      7590        67  OSM       H15F          -27.8010309136      -18.8416387163        3.1580481822  MEMB      67              0.0000000000
      7591        67  OSM       H15G          -26.5927612311      -18.8467758333        4.4879195011  MEMB      67              0.0000000000
      7592        67  OSM       C16F          -26.1179070885      -17.4795478918        2.8878545483  MEMB      67              0.0000000000
      7593        67  OSM       H16F          -25.8175056848      -18.3249535815        2.2325909267  MEMB      67              0.0000000000
      7594        67  OSM       H16G          -25.1977108056      -17.1628614786        3.4238298925  MEMB      67              0.0000000000
      7595        67  OSM       C17F          -26.6325285981      -16.3894585632        1.9467642496  MEMB      67              0.0000000000
      7596        67  OSM       H17F          -25.7588231533      -15.9914383666        1.3877118724  MEMB      67              0.0000000000
      7597        67  OSM       H17G          -27.1230688196      -15.6390527177        2.6029526389  MEMB      67              0.0000000000
      7598        67  OSM       C18F          -27.7802983845      -16.6965757942        0.9765055285  MEMB      67              0.0000000000
      7599        67  OSM       H18F          -28.7022988663      -16.8320503677        1.5813868502  MEMB      67              0.0000000000
      7600        67  OSM       H18G          -27.5418519837      -17.5666985525        0.3281595532  MEMB      67              0.0000000000
      7601        67  OSM       H18H          -27.8833096844      -15.7860555134        0.3482836047  MEMB      67              0.0000000000
      7602        68  CHL1      C3             -1.5898123428       34.7793588505       17.3288800000  MEMB      68              0.0000000000
      7603        68  CHL1      H3             -2.5200963883       34.2816781928       16.9807300000  MEMB      68              0.0000000000
      7604        68  CHL1      O3             -1.5525774372       35.0839543495       18.6711200000  MEMB      68              0.0000000000
      7605        68  CHL1      H3'            -0.6230632414       35.3154911584       18.7344200000  MEMB      68              0.0000000000
      7606        68  CHL1      C4             -0.3728903077       33.8667262515       17.1744300000  MEMB      68              0.0000000000
      7607        68  CHL1      H4A             0.6220614410       34.3034198231       17.4061600000  MEMB      68              0.0000000000
      7608        68  CHL1      H4B            -0.5748612567       32.9902785785       17.8266200000  MEMB      68              0.0000000000
      7609        68  CHL1      C5             -0.3361168401       33.5597623118       15.6433100000  MEMB      68              0.0000000000
      7610        68  CHL1      C6             -0.4350773254       32.3045972153       15.1061800000  MEMB      68              0.0000000000
      7611        68  CHL1      H6             -0.4540932844       31.4287931554       15.7714700000  MEMB      68              0.0000000000
      7612        68  CHL1      C7             -0.4339610938       32.0285339312       13.6251600000  MEMB      68              0.0000000000
      7613        68  CHL1      H7A             0.0824450421       31.0609425478       13.4479600000  MEMB      68              0.0000000000
      7614        68  CHL1      H7B            -1.4249751281       31.9121486676       13.1366300000  MEMB      68              0.0000000000
      7615        68  CHL1      C8              0.2000824348       33.1062356501       12.7359600000  MEMB      68              0.0000000000
      7616        68  CHL1      H8              1.2637924622       33.1278448789       13.0558900000  MEMB      68              0.0000000000
      7617        68  CHL1      C14            -0.0681288318       32.9533144110       11.3018300000  MEMB      68              0.0000000000
      7618        68  CHL1      H14            -1.1709388197       33.0729942323       11.2400300000  MEMB      68              0.0000000000
      7619        68  CHL1      C15             0.2959315796       31.6321852710       10.6061400000  MEMB      68              0.0000000000
      7620        68  CHL1      H15A            1.2915059611       31.2262279984       10.8860500000  MEMB      68              0.0000000000
      7621        68  CHL1      H15B           -0.3921204605       30.7754082000       10.7699700000  MEMB      68              0.0000000000
      7622        68  CHL1      C16             0.3117768736       32.0505406985        9.1026600000  MEMB      68              0.0000000000
      7623        68  CHL1      H16A            1.3052396266       31.7314156665        8.7212000000  MEMB      68              0.0000000000
      7624        68  CHL1      H16B           -0.4628467791       31.4689755835        8.5585400000  MEMB      68              0.0000000000
      7625        68  CHL1      C17             0.0264440181       33.5476977783        9.0823300000  MEMB      68              0.0000000000
      7626        68  CHL1      H17            -1.0783356268       33.4354800012        9.1166800000  MEMB      68              0.0000000000
      7627        68  CHL1      C13             0.5168269626       34.0504876156       10.3606100000  MEMB      68              0.0000000000
      7628        68  CHL1      C18             2.0754529877       33.9376859666       10.3300500000  MEMB      68              0.0000000000
      7629        68  CHL1      H18A            2.5416902070       34.3225224871        9.3979300000  MEMB      68              0.0000000000
      7630        68  CHL1      H18B            2.5618253753       34.4483946885       11.1885100000  MEMB      68              0.0000000000
      7631        68  CHL1      H18C            2.3991533282       32.8805396277       10.4395200000  MEMB      68              0.0000000000
      7632        68  CHL1      C12             0.0188742364       35.4695782605       10.8425300000  MEMB      68              0.0000000000
      7633        68  CHL1      H12A            0.6305271140       36.1869889886       10.2547300000  MEMB      68              0.0000000000
      7634        68  CHL1      H12B           -1.0302539285       35.7111975410       10.5681400000  MEMB      68              0.0000000000
      7635        68  CHL1      C11             0.1852159442       35.6878470030       12.3345800000  MEMB      68              0.0000000000
      7636        68  CHL1      H11A            1.2426179033       35.8897432551       12.6092500000  MEMB      68              0.0000000000
      7637        68  CHL1      H11B           -0.4146381444       36.5912236406       12.5762700000  MEMB      68              0.0000000000
      7638        68  CHL1      C9             -0.3219457849       34.5204778298       13.1777800000  MEMB      68              0.0000000000
      7639        68  CHL1      H9             -1.4031392751       34.4506785664       12.9318700000  MEMB      68              0.0000000000
      7640        68  CHL1      C10            -0.2493422301       34.8012896611       14.6789100000  MEMB      68              0.0000000000
      7641        68  CHL1      C19             1.2024375193       35.3762633750       14.9828100000  MEMB      68              0.0000000000
      7642        68  CHL1      H19A            1.4625112322       35.4364314728       16.0612700000  MEMB      68              0.0000000000
      7643        68  CHL1      H19B            2.0703317424       34.8698418603       14.5088900000  MEMB      68              0.0000000000
      7644        68  CHL1      H19C            1.3892209571       36.4034661836       14.6029800000  MEMB      68              0.0000000000
      7645        68  CHL1      C1             -1.3058359739       35.8405129027       15.0821900000  MEMB      68              0.0000000000
      7646        68  CHL1      H1A            -0.8874194972       36.7740331341       14.6488600000  MEMB      68              0.0000000000
      7647        68  CHL1      H1B            -2.2777005614       35.4934248007       14.6706800000  MEMB      68              0.0000000000
      7648        68  CHL1      C2             -1.3491068849       36.0678066112       16.5826900000  MEMB      68              0.0000000000
      7649        68  CHL1      H2A            -1.9989956321       36.9536864735       16.7475500000  MEMB      68              0.0000000000
      7650        68  CHL1      H2B            -0.3435346253       36.4527873145       16.8564300000  MEMB      68              0.0000000000
      7651        68  CHL1      C20             0.2396878378       34.1848770687        7.6831000000  MEMB      68              0.0000000000
      7652        68  CHL1      H20             1.3401123395       34.2716158598        7.5571300000  MEMB      68              0.0000000000
      7653        68  CHL1      C21            -0.4749119990       35.4836928881        7.3972200000  MEMB      68              0.0000000000
      7654        68  CHL1      H21A           -1.5317502280       35.2959100341        7.1106200000  MEMB      68              0.0000000000
      7655        68  CHL1      H21B            0.0007190430       35.8925259270        6.4801900000  MEMB      68              0.0000000000
      7656        68  CHL1      H21C           -0.3978470173       36.2935937284        8.1538200000  MEMB      68              0.0000000000
      7657        68  CHL1      C22            -0.1045783932       33.1891959592        6.5597300000  MEMB      68              0.0000000000
      7658        68  CHL1      H22A            0.6928946121       32.4170088087        6.6052200000  MEMB      68              0.0000000000
      7659        68  CHL1      H22B           -1.1085356809       32.7309515461        6.6878500000  MEMB      68              0.0000000000
      7660        68  CHL1      C23            -0.0579118560       33.7424043619        5.1691300000  MEMB      68              0.0000000000
      7661        68  CHL1      H23A           -0.7969071845       34.5701813047        5.1143800000  MEMB      68              0.0000000000
      7662        68  CHL1      H23B            0.9165477703       34.2228635892        4.9369800000  MEMB      68              0.0000000000
      7663        68  CHL1      C24            -0.2627123728       32.7076798475        3.9782900000  MEMB      68              0.0000000000
      7664        68  CHL1      H24A            0.6502946401       32.0798432551        4.0593200000  MEMB      68              0.0000000000
      7665        68  CHL1      H24B           -1.2130153706       32.1602520768        4.1559700000  MEMB      68              0.0000000000
      7666        68  CHL1      C25            -0.3375407952       33.4103052465        2.6169900000  MEMB      68              0.0000000000
      7667        68  CHL1      H25            -1.1731987750       34.1325538725        2.7369000000  MEMB      68              0.0000000000
      7668        68  CHL1      C26             0.9339664189       34.0002528420        2.0514300000  MEMB      68              0.0000000000
      7669        68  CHL1      H26A            1.5473240944       33.1667447441        1.6472300000  MEMB      68              0.0000000000
      7670        68  CHL1      H26B            0.7708879333       34.6874847348        1.1938500000  MEMB      68              0.0000000000
      7671        68  CHL1      H26C            1.4716850026       34.5576738295        2.8479600000  MEMB      68              0.0000000000
      7672        68  CHL1      C27            -0.8279215167       32.4501526914        1.5088700000  MEMB      68              0.0000000000
      7673        68  CHL1      H27A           -1.9268309963       32.3242797629        1.6131400000  MEMB      68              0.0000000000
      7674        68  CHL1      H27B           -0.7987687471       32.7816110435        0.4488700000  MEMB      68              0.0000000000
      7675        68  CHL1      H27C           -0.3273777246       31.4592037213        1.5513000000  MEMB      68              0.0000000000
      7676        69  SAPC      N              25.6027936767      -26.8330920876       19.9384845284  MEMB      69              0.0000000000
      7677        69  SAPC      C12            25.3042077731      -25.6476960234       18.9953171378  MEMB      69              0.0000000000
      7678        69  SAPC      H12A           25.7563679334      -25.9213346458       18.0534715402  MEMB      69              0.0000000000
      7679        69  SAPC      H12B           25.8821062571      -24.8171668441       19.3730136873  MEMB      69              0.0000000000
      7680        69  SAPC      C13            27.0818825554      -26.9839520117       19.8891855853  MEMB      69              0.0000000000
      7681        69  SAPC      H13A           27.4733338116      -26.0611249402       20.2911261047  MEMB      69              0.0000000000
      7682        69  SAPC      H13B           27.5021919373      -27.8814429927       20.3184292195  MEMB      69              0.0000000000
      7683        69  SAPC      H13C           27.4009564355      -26.8549351979       18.8654929775  MEMB      69              0.0000000000
      7684        69  SAPC      C14            25.1547970747      -26.4787522206       21.3134622353  MEMB      69              0.0000000000
      7685        69  SAPC      H14A           25.6516841784      -25.5885621853       21.6699239501  MEMB      69              0.0000000000
      7686        69  SAPC      H14B           24.0789722515      -26.4049929330       21.3731327302  MEMB      69              0.0000000000
      7687        69  SAPC      H14C           25.5054714438      -27.1509698440       22.0825857576  MEMB      69              0.0000000000
      7688        69  SAPC      C15            25.0211384142      -28.1956812179       19.4242852311  MEMB      69              0.0000000000
      7689        69  SAPC      H15A           23.9523265055      -28.0407116463       19.4293394798  MEMB      69              0.0000000000
      7690        69  SAPC      H15B           25.3467917042      -28.3494407719       18.4060966485  MEMB      69              0.0000000000
      7691        69  SAPC      H15C           25.3032499954      -29.0473115655       20.0255662042  MEMB      69              0.0000000000
      7692        69  SAPC      C11            23.7974468805      -25.4077337027       18.7438712966  MEMB      69              0.0000000000
      7693        69  SAPC      H11A           23.3417747496      -26.3198239745       18.3025378052  MEMB      69              0.0000000000
      7694        69  SAPC      H11B           23.7902870797      -24.6624850302       17.9199331852  MEMB      69              0.0000000000
      7695        69  SAPC      P              22.9412255792      -23.5665551252       20.4089693102  MEMB      69              0.0000000000
      7696        69  SAPC      O13            22.0398607927      -23.4746752088       21.5819048160  MEMB      69              0.0000000000
      7697        69  SAPC      O14            24.3260613334      -22.9851558841       20.5700384594  MEMB      69              0.0000000000
      7698        69  SAPC      O12            23.1147838464      -25.0403330917       19.9289840949  MEMB      69              0.0000000000
      7699        69  SAPC      O11            22.2831238730      -22.8197615354       19.2054973043  MEMB      69              0.0000000000
      7700        69  SAPC      C1             20.8692891763      -23.0302811902       18.8404372575  MEMB      69              0.0000000000
      7701        69  SAPC      HA             20.4691988081      -23.8979598751       19.4073432587  MEMB      69              0.0000000000
      7702        69  SAPC      HB             20.2714964045      -22.1333640999       19.1097036455  MEMB      69              0.0000000000
      7703        69  SAPC      C2             20.6451496690      -23.1931804483       17.2949361039  MEMB      69              0.0000000000
      7704        69  SAPC      HS             19.5643150817      -23.4224096632       17.1784407722  MEMB      69              0.0000000000
      7705        69  SAPC      O21            21.2236100035      -24.4389798260       16.8385870746  MEMB      69              0.0000000000
      7706        69  SAPC      C21            20.6241706819      -25.5399323845       17.0533724360  MEMB      69              0.0000000000
      7707        69  SAPC      O22            19.6333775041      -25.7369396534       17.7543597199  MEMB      69              0.0000000000
      7708        69  SAPC      C22            21.3673033827      -26.6638728988       16.2554741711  MEMB      69              0.0000000000
      7709        69  SAPC      H2R            22.4262494076      -26.7349613202       16.5839564307  MEMB      69              0.0000000000
      7710        69  SAPC      H2S            20.7791795001      -27.5626949305       16.5392874239  MEMB      69              0.0000000000
      7711        69  SAPC      C3             21.2273432873      -22.0717466397       16.4709214744  MEMB      69              0.0000000000
      7712        69  SAPC      HX             22.2005523381      -21.6490486753       16.8003321385  MEMB      69              0.0000000000
      7713        69  SAPC      HY             20.4977025708      -21.2358310038       16.5274073146  MEMB      69              0.0000000000
      7714        69  SAPC      O31            21.2933426174      -22.3693998531       15.0935401245  MEMB      69              0.0000000000
      7715        69  SAPC      C31            22.3697385815      -22.5653410835       14.4672773163  MEMB      69              0.0000000000
      7716        69  SAPC      O32            23.4833120045      -22.7799931924       14.9297233064  MEMB      69              0.0000000000
      7717        69  SAPC      C32            21.9473116048      -22.6086923206       12.9333318224  MEMB      69              0.0000000000
      7718        69  SAPC      H2X            21.1453028880      -21.8665572172       12.7324876877  MEMB      69              0.0000000000
      7719        69  SAPC      H2Y            21.5515177654      -23.6102509545       12.6602962981  MEMB      69              0.0000000000
      7720        69  SAPC      C23            21.1655382204      -26.3538818003       14.7536700311  MEMB      69              0.0000000000
      7721        69  SAPC      H3R            21.6959073389      -25.4157597968       14.4835651499  MEMB      69              0.0000000000
      7722        69  SAPC      H3S            20.0801789812      -26.1486770810       14.6344760249  MEMB      69              0.0000000000
      7723        69  SAPC      C24            21.6428915086      -27.5993473537       13.9876592810  MEMB      69              0.0000000000
      7724        69  SAPC      H4R            21.4470616494      -27.2044610431       12.9678376178  MEMB      69              0.0000000000
      7725        69  SAPC      H4S            20.9617284440      -28.4118645680       14.3195532618  MEMB      69              0.0000000000
      7726        69  SAPC      C25            23.0814296895      -27.7997672376       14.1582627061  MEMB      69              0.0000000000
      7727        69  SAPC      H5R            23.4320190841      -28.6304640417       14.7883660203  MEMB      69              0.0000000000
      7728        69  SAPC      C26            24.0490793781      -27.1653211406       13.5059019940  MEMB      69              0.0000000000
      7729        69  SAPC      H6R            25.0837939568      -27.4674425477       13.7251924331  MEMB      69              0.0000000000
      7730        69  SAPC      C27            23.9319875098      -26.0927863284       12.4457218385  MEMB      69              0.0000000000
      7731        69  SAPC      H7R            24.4261211242      -25.1707318407       12.8198456322  MEMB      69              0.0000000000
      7732        69  SAPC      H7S            22.8861510628      -25.8645440843       12.1483126249  MEMB      69              0.0000000000
      7733        69  SAPC      C28            24.4470837621      -26.6131471449       11.0644128986  MEMB      69              0.0000000000
      7734        69  SAPC      H8R            24.0371624288      -27.6218827302       10.9081530955  MEMB      69              0.0000000000
      7735        69  SAPC      C29            25.3062610984      -26.0569078561       10.2343187062  MEMB      69              0.0000000000
      7736        69  SAPC      H9R            25.4967014499      -26.6772362696        9.3461043995  MEMB      69              0.0000000000
      7737        69  SAPC      C210           25.9992238526      -24.7818288110       10.3762981763  MEMB      69              0.0000000000
      7738        69  SAPC      H10R           26.4034036388      -24.6943208445       11.4074635841  MEMB      69              0.0000000000
      7739        69  SAPC      H10S           25.2688695061      -23.9464939619       10.3204480096  MEMB      69              0.0000000000
      7740        69  SAPC      C211           27.0298213872      -24.5991445127        9.3083196484  MEMB      69              0.0000000000
      7741        69  SAPC      H11R           27.9150683264      -25.2498409541        9.3624670199  MEMB      69              0.0000000000
      7742        69  SAPC      C212           26.9371095078      -23.8774081485        8.1734711384  MEMB      69              0.0000000000
      7743        69  SAPC      H12R           27.7800152737      -24.0003632196        7.4774882096  MEMB      69              0.0000000000
      7744        69  SAPC      C213           25.7994877414      -23.1058193856        7.5984617142  MEMB      69              0.0000000000
      7745        69  SAPC      H13R           26.2199187219      -22.5219861090        6.7518818448  MEMB      69              0.0000000000
      7746        69  SAPC      H13S           25.4130937777      -22.3438105615        8.3086467246  MEMB      69              0.0000000000
      7747        69  SAPC      C214           24.6043759865      -23.7956631906        7.0452162779  MEMB      69              0.0000000000
      7748        69  SAPC      H14R           23.8654700762      -24.0370443389        7.8235179619  MEMB      69              0.0000000000
      7749        69  SAPC      C215           24.3793381015      -24.1702434112        5.7247188461  MEMB      69              0.0000000000
      7750        69  SAPC      H15R           23.4667178601      -24.7119568808        5.4354602923  MEMB      69              0.0000000000
      7751        69  SAPC      C216           25.2971782583      -23.9981803173        4.4670224500  MEMB      69              0.0000000000
      7752        69  SAPC      H16R           26.3702521494      -23.9793116936        4.7542111632  MEMB      69              0.0000000000
      7753        69  SAPC      H16S           24.9902481639      -23.0246404812        4.0284618267  MEMB      69              0.0000000000
      7754        69  SAPC      C217           25.0654745334      -25.1922815666        3.5574012360  MEMB      69              0.0000000000
      7755        69  SAPC      H17R           23.9656359158      -25.2962823894        3.4396759569  MEMB      69              0.0000000000
      7756        69  SAPC      H17S           25.4081803772      -26.1451728851        4.0144264354  MEMB      69              0.0000000000
      7757        69  SAPC      C218           25.6264219936      -25.1389219184        2.2397711591  MEMB      69              0.0000000000
      7758        69  SAPC      H18R           26.6984703781      -24.9035682703        2.4119386921  MEMB      69              0.0000000000
      7759        69  SAPC      H18S           25.3238378137      -24.2065479362        1.7168536688  MEMB      69              0.0000000000
      7760        69  SAPC      C219           25.3575969016      -26.3296331844        1.2386776526  MEMB      69              0.0000000000
      7761        69  SAPC      H19R           24.2502587434      -26.4098102559        1.2798435773  MEMB      69              0.0000000000
      7762        69  SAPC      H19S           25.8609849622      -27.2465635418        1.6130577481  MEMB      69              0.0000000000
      7763        69  SAPC      C220           25.7467123738      -26.2165646031       -0.3322067944  MEMB      69              0.0000000000
      7764        69  SAPC      H20R           25.4214225732      -27.0663465344       -0.9696853524  MEMB      69              0.0000000000
      7765        69  SAPC      H20S           26.8557195501      -26.1507459422       -0.3226477816  MEMB      69              0.0000000000
      7766        69  SAPC      H20T           25.1236579210      -25.3800899850       -0.7148745789  MEMB      69              0.0000000000
      7767        69  SAPC      C33            23.0660959710      -22.4069571992       12.0153670153  MEMB      69              0.0000000000
      7768        69  SAPC      H3X            23.9725546563      -22.9583611843       12.3449230537  MEMB      69              0.0000000000
      7769        69  SAPC      H3Y            23.4043800565      -21.3544810168       12.1257238240  MEMB      69              0.0000000000
      7770        69  SAPC      C34            22.8209001832      -22.6450762812       10.5051290199  MEMB      69              0.0000000000
      7771        69  SAPC      H4X            22.7453282864      -23.7344785962       10.3006479696  MEMB      69              0.0000000000
      7772        69  SAPC      H4Y            23.6512351138      -22.1301585273        9.9762387645  MEMB      69              0.0000000000
      7773        69  SAPC      C35            21.5173469948      -22.0508865416        9.8694088539  MEMB      69              0.0000000000
      7774        69  SAPC      H5X            21.4178732895      -20.9569718374       10.0360726356  MEMB      69              0.0000000000
      7775        69  SAPC      H5Y            20.5903575976      -22.4700775703       10.3158285606  MEMB      69              0.0000000000
      7776        69  SAPC      C36            21.3417816159      -22.2856128210        8.3488593451  MEMB      69              0.0000000000
      7777        69  SAPC      H6X            22.2338605483      -21.8074700078        7.8907153233  MEMB      69              0.0000000000
      7778        69  SAPC      H6Y            20.5257609195      -21.6659743238        7.9193485949  MEMB      69              0.0000000000
      7779        69  SAPC      C37            21.0733230316      -23.7440449517        7.9997004401  MEMB      69              0.0000000000
      7780        69  SAPC      H7X            21.8171716865      -24.3462236253        8.5639618155  MEMB      69              0.0000000000
      7781        69  SAPC      H7Y            21.2518480381      -23.8490953345        6.9081816138  MEMB      69              0.0000000000
      7782        69  SAPC      C38            19.6476126422      -24.1602695963        8.3087599029  MEMB      69              0.0000000000
      7783        69  SAPC      H8X            18.9856966616      -23.3390075016        7.9598801525  MEMB      69              0.0000000000
      7784        69  SAPC      H8Y            19.6013592816      -24.1765734262        9.4186770817  MEMB      69              0.0000000000
      7785        69  SAPC      C39            19.1065606777      -25.4346966978        7.6283227265  MEMB      69              0.0000000000
      7786        69  SAPC      H9X            18.0784129061      -25.6649301121        7.9807793001  MEMB      69              0.0000000000
      7787        69  SAPC      H9Y            19.7846028119      -26.2645911137        7.9213323685  MEMB      69              0.0000000000
      7788        69  SAPC      C310           18.9620665911      -25.2293567082        6.1021506086  MEMB      69              0.0000000000
      7789        69  SAPC      H10X           19.8189322987      -24.6862638551        5.6492134710  MEMB      69              0.0000000000
      7790        69  SAPC      H10Y           18.1139357076      -24.5503843278        5.8697898536  MEMB      69              0.0000000000
      7791        69  SAPC      C311           18.7124692618      -26.5896705595        5.3246467573  MEMB      69              0.0000000000
      7792        69  SAPC      H11X           17.6525417996      -26.8351885860        5.5495818966  MEMB      69              0.0000000000
      7793        69  SAPC      H11Y           19.4295158907      -27.3384653752        5.7239858000  MEMB      69              0.0000000000
      7794        69  SAPC      C312           19.0420808231      -26.6006839247        3.8053773338  MEMB      69              0.0000000000
      7795        69  SAPC      H12X           18.2558450062      -26.0163170819        3.2812877243  MEMB      69              0.0000000000
      7796        69  SAPC      H12Y           18.8613480256      -27.6704184326        3.5659508384  MEMB      69              0.0000000000
      7797        69  SAPC      C313           20.4993035519      -26.1526603665        3.3652531520  MEMB      69              0.0000000000
      7798        69  SAPC      H13X           21.1761250545      -26.9243660365        3.7903471011  MEMB      69              0.0000000000
      7799        69  SAPC      H13Y           20.8309083162      -25.1939328746        3.8182450602  MEMB      69              0.0000000000
      7800        69  SAPC      C314           20.5549102616      -26.1481713954        1.7909681899  MEMB      69              0.0000000000
      7801        69  SAPC      H14X           19.9541271564      -27.0418066246        1.5174776627  MEMB      69              0.0000000000
      7802        69  SAPC      H14Y           21.6270458991      -26.3180899606        1.5543802010  MEMB      69              0.0000000000
      7803        69  SAPC      C315           19.9247921917      -24.9221370937        1.1381772096  MEMB      69              0.0000000000
      7804        69  SAPC      H15X           20.6399659511      -24.0958642671        1.3384801748  MEMB      69              0.0000000000
      7805        69  SAPC      H15Y           19.0485314813      -24.7853728300        1.8073435639  MEMB      69              0.0000000000
      7806        69  SAPC      C316           19.7171189696      -24.9064347444       -0.3260170315  MEMB      69              0.0000000000
      7807        69  SAPC      H16X           18.9853644528      -25.6789177587       -0.6455903035  MEMB      69              0.0000000000
      7808        69  SAPC      H16Y           20.6976696286      -25.0677073128       -0.8228402877  MEMB      69              0.0000000000
      7809        69  SAPC      C317           18.9703579417      -23.7171434970       -0.8554200438  MEMB      69              0.0000000000
      7810        69  SAPC      H17X           18.0765467528      -23.4399535658       -0.2565975120  MEMB      69              0.0000000000
      7811        69  SAPC      H17Y           18.5041480272      -23.8344738764       -1.8570206405  MEMB      69              0.0000000000
      7812        69  SAPC      C318           19.9222343902      -22.5392424761       -1.0009765246  MEMB      69              0.0000000000
      7813        69  SAPC      H18X           20.2506451895      -22.2434520335        0.0183240928  MEMB      69              0.0000000000
      7814        69  SAPC      H18Y           19.3814438350      -21.6258786105       -1.3290523345  MEMB      69              0.0000000000
      7815        69  SAPC      H18Z           20.8429449466      -22.6975345905       -1.6022725605  MEMB      69              0.0000000000
      7816        70  SOPE      N             -10.4842415182       36.1773441092       22.6303036001  MEMB      70              0.0000000000
      7817        70  SOPE      HN1           -10.5460463115       37.0515487807       23.1902555438  MEMB      70              0.0000000000
      7818        70  SOPE      HN2           -11.1280441924       36.2987827634       21.8226088225  MEMB      70              0.0000000000
      7819        70  SOPE      HN3           -10.7542397796       35.4139073905       23.2828870620  MEMB      70              0.0000000000
      7820        70  SOPE      C12            -9.1330150720       36.1130937708       22.0387733591  MEMB      70              0.0000000000
      7821        70  SOPE      H12A           -8.3893455864       35.7906195001       22.7985674872  MEMB      70              0.0000000000
      7822        70  SOPE      H12B           -8.7871179319       37.0477611371       21.5477814196  MEMB      70              0.0000000000
      7823        70  SOPE      C11            -9.1215483393       35.0497244323       20.9339850076  MEMB      70              0.0000000000
      7824        70  SOPE      H11A           -8.1532260536       35.0172953904       20.3902743140  MEMB      70              0.0000000000
      7825        70  SOPE      H11B           -9.8867425062       35.2722356931       20.1598482986  MEMB      70              0.0000000000
      7826        70  SOPE      P              -9.0889389724       32.4979294782       20.5009592368  MEMB      70              0.0000000000
      7827        70  SOPE      O13            -9.9253475772       31.3317106792       21.0379099221  MEMB      70              0.0000000000
      7828        70  SOPE      O14            -7.6141981695       32.3382937939       20.4117193921  MEMB      70              0.0000000000
      7829        70  SOPE      O12            -9.4232194546       33.7877003644       21.4065412318  MEMB      70              0.0000000000
      7830        70  SOPE      O11            -9.6002314544       32.9433521703       19.0398082517  MEMB      70              0.0000000000
      7831        70  SOPE      C1            -10.9225894033       32.6281780844       18.6703448261  MEMB      70              0.0000000000
      7832        70  SOPE      HA            -11.5847299384       33.2592293973       19.3009518380  MEMB      70              0.0000000000
      7833        70  SOPE      HB            -11.2495306988       31.5752167669       18.8071028746  MEMB      70              0.0000000000
      7834        70  SOPE      C2            -11.3450983184       33.0983086113       17.2754805853  MEMB      70              0.0000000000
      7835        70  SOPE      HS            -12.3908221869       32.8139508369       17.0306883681  MEMB      70              0.0000000000
      7836        70  SOPE      O21           -10.5289738641       32.5241100601       16.2401419330  MEMB      70              0.0000000000
      7837        70  SOPE      C21           -10.6356127655       31.2639480824       15.9679343558  MEMB      70              0.0000000000
      7838        70  SOPE      O22           -11.4560074498       30.4925030778       16.3322198379  MEMB      70              0.0000000000
      7839        70  SOPE      C22            -9.4184249689       30.9113674239       14.9990418324  MEMB      70              0.0000000000
      7840        70  SOPE      H2R            -8.6457965370       30.6059771687       15.7366753937  MEMB      70              0.0000000000
      7841        70  SOPE      H2S            -9.1147058852       31.8703763374       14.5274725854  MEMB      70              0.0000000000
      7842        70  SOPE      C3            -11.3271691784       34.6645653545       17.2044508138  MEMB      70              0.0000000000
      7843        70  SOPE      HX            -10.3895944642       34.9707839690       17.7158264603  MEMB      70              0.0000000000
      7844        70  SOPE      HY            -12.1552832557       35.0729664382       17.8223154384  MEMB      70              0.0000000000
      7845        70  SOPE      O31           -11.3957599584       35.1083811101       15.8651602678  MEMB      70              0.0000000000
      7846        70  SOPE      C31           -12.5162857935       34.9743029949       15.1289498222  MEMB      70              0.0000000000
      7847        70  SOPE      O32           -13.6118404125       34.6566917488       15.5305047315  MEMB      70              0.0000000000
      7848        70  SOPE      C32           -12.0473933161       35.0943700440       13.6101287238  MEMB      70              0.0000000000
      7849        70  SOPE      H2X           -10.9612054349       35.2976779407       13.4953128016  MEMB      70              0.0000000000
      7850        70  SOPE      H2Y           -12.5008068655       36.0193420968       13.1939991746  MEMB      70              0.0000000000
      7851        70  SOPE      C23            -9.7120917634       29.7973944624       13.9755107083  MEMB      70              0.0000000000
      7852        70  SOPE      H3R           -10.7946839570       29.5514862526       13.9325675346  MEMB      70              0.0000000000
      7853        70  SOPE      H3S            -9.2697061363       28.8628866761       14.3820947442  MEMB      70              0.0000000000
      7854        70  SOPE      C24            -9.0706085913       30.0231253529       12.5797434367  MEMB      70              0.0000000000
      7855        70  SOPE      H4R            -8.2077188237       30.7012361816       12.7526823967  MEMB      70              0.0000000000
      7856        70  SOPE      H4S            -8.7688695866       29.1168338713       12.0123720400  MEMB      70              0.0000000000
      7857        70  SOPE      C25            -9.9821228730       30.8083690435       11.6449876884  MEMB      70              0.0000000000
      7858        70  SOPE      H5R           -10.9707506417       30.3149484964       11.5289182757  MEMB      70              0.0000000000
      7859        70  SOPE      H5S           -10.0234514809       31.8695834548       11.9712349754  MEMB      70              0.0000000000
      7860        70  SOPE      C26            -9.5641549571       30.9579600255       10.1541985588  MEMB      70              0.0000000000
      7861        70  SOPE      H6R            -9.5302262733       29.9372584433        9.7167766807  MEMB      70              0.0000000000
      7862        70  SOPE      H6S           -10.2458084706       31.6066337097        9.5635278305  MEMB      70              0.0000000000
      7863        70  SOPE      C27            -8.2503249002       31.7525021790        9.9339167277  MEMB      70              0.0000000000
      7864        70  SOPE      H7R            -8.4210856328       32.8210664141       10.1855753807  MEMB      70              0.0000000000
      7865        70  SOPE      H7S            -7.4765663981       31.3841655304       10.6409857035  MEMB      70              0.0000000000
      7866        70  SOPE      C28            -7.8446508000       31.7172100341        8.4481732918  MEMB      70              0.0000000000
      7867        70  SOPE      H8R            -7.7578694587       30.7020656122        8.0051477348  MEMB      70              0.0000000000
      7868        70  SOPE      H8S            -8.6777606818       32.2333141044        7.9248330615  MEMB      70              0.0000000000
      7869        70  SOPE      C29            -6.5844451225       32.5416523040        8.3783872658  MEMB      70              0.0000000000
      7870        70  SOPE      H91            -6.4232136664       33.1006544700        9.3119399127  MEMB      70              0.0000000000
      7871        70  SOPE      C210           -5.6853421538       32.6645566469        7.4046440932  MEMB      70              0.0000000000
      7872        70  SOPE      H101           -4.8087494618       33.2975752790        7.6068142443  MEMB      70              0.0000000000
      7873        70  SOPE      C211           -5.6304803844       32.0830235415        6.0469705192  MEMB      70              0.0000000000
      7874        70  SOPE      H11R           -6.0881375859       31.0813251582        5.9004416574  MEMB      70              0.0000000000
      7875        70  SOPE      H11S           -4.5973311174       32.0760277474        5.6384670520  MEMB      70              0.0000000000
      7876        70  SOPE      C212           -6.4278324842       33.0044220967        5.1243757615  MEMB      70              0.0000000000
      7877        70  SOPE      H12R           -6.1282925715       34.0472727716        5.3632468197  MEMB      70              0.0000000000
      7878        70  SOPE      H12S           -7.4749648926       33.0158034499        5.4954612206  MEMB      70              0.0000000000
      7879        70  SOPE      C213           -6.5107714460       32.6414135232        3.5706755835  MEMB      70              0.0000000000
      7880        70  SOPE      H13R           -6.7889326761       31.5658009733        3.5730012161  MEMB      70              0.0000000000
      7881        70  SOPE      H13S           -5.4986591346       32.8943386524        3.1886044047  MEMB      70              0.0000000000
      7882        70  SOPE      C214           -7.5284254961       33.4732192626        2.7874526637  MEMB      70              0.0000000000
      7883        70  SOPE      H14R           -7.3830396079       33.2853412130        1.7021472884  MEMB      70              0.0000000000
      7884        70  SOPE      H14S           -7.3627775142       34.5005489378        3.1766509667  MEMB      70              0.0000000000
      7885        70  SOPE      C215           -9.0049299490       33.1406211594        2.9094012097  MEMB      70              0.0000000000
      7886        70  SOPE      H15R           -9.3632269845       33.4399382422        3.9175451794  MEMB      70              0.0000000000
      7887        70  SOPE      H15S           -9.2079765209       32.0499261822        2.8504298791  MEMB      70              0.0000000000
      7888        70  SOPE      C216           -9.8837289346       33.9672855460        1.8595106007  MEMB      70              0.0000000000
      7889        70  SOPE      H16R           -9.5005056109       33.7278654987        0.8445528763  MEMB      70              0.0000000000
      7890        70  SOPE      H16S           -9.7877290019       35.0640126085        2.0088252662  MEMB      70              0.0000000000
      7891        70  SOPE      C217          -11.4429276533       33.7465883551        1.9504395430  MEMB      70              0.0000000000
      7892        70  SOPE      H17R          -11.9354041879       34.3728514410        1.1761118054  MEMB      70              0.0000000000
      7893        70  SOPE      H17S          -11.6420938636       34.0913352874        2.9876481040  MEMB      70              0.0000000000
      7894        70  SOPE      C218          -11.9623217643       32.2959151162        1.7228030562  MEMB      70              0.0000000000
      7895        70  SOPE      H18R          -13.0472058916       32.4116943828        1.5131796623  MEMB      70              0.0000000000
      7896        70  SOPE      H18S          -11.7909935877       31.6252234735        2.5917918738  MEMB      70              0.0000000000
      7897        70  SOPE      H18T          -11.3429574610       31.7814600236        0.9572668622  MEMB      70              0.0000000000
      7898        70  SOPE      C33           -12.3372042827       33.7950579395       12.7493857066  MEMB      70              0.0000000000
      7899        70  SOPE      H3X           -13.3707851124       33.4612422807       12.9830496384  MEMB      70              0.0000000000
      7900        70  SOPE      H3Y           -11.7706112694       32.9024564882       13.0907890274  MEMB      70              0.0000000000
      7901        70  SOPE      C34           -12.1145191700       33.9324989839       11.2983349359  MEMB      70              0.0000000000
      7902        70  SOPE      H4X           -12.4112536324       32.9792128949       10.8109792876  MEMB      70              0.0000000000
      7903        70  SOPE      H4Y           -11.0196735355       34.0365235009       11.1408142176  MEMB      70              0.0000000000
      7904        70  SOPE      C35           -12.9876410068       34.9771553399       10.5351647405  MEMB      70              0.0000000000
      7905        70  SOPE      H5X           -13.0888097253       35.9430501088       11.0747324711  MEMB      70              0.0000000000
      7906        70  SOPE      H5Y           -14.0063870642       34.5798815580       10.3385654091  MEMB      70              0.0000000000
      7907        70  SOPE      C36           -12.3570303875       35.2084815965        9.2218933060  MEMB      70              0.0000000000
      7908        70  SOPE      H6X           -12.0986214373       34.2515451012        8.7200780108  MEMB      70              0.0000000000
      7909        70  SOPE      H6Y           -11.5054969466       35.9171454986        9.3056021823  MEMB      70              0.0000000000
      7910        70  SOPE      C37           -13.3367437563       35.8631255135        8.2187190410  MEMB      70              0.0000000000
      7911        70  SOPE      H7X           -13.5376476993       36.8609073614        8.6641296295  MEMB      70              0.0000000000
      7912        70  SOPE      H7Y           -14.3519226068       35.4118135821        8.2257856465  MEMB      70              0.0000000000
      7913        70  SOPE      C38           -12.7389313232       35.8759113725        6.8070219442  MEMB      70              0.0000000000
      7914        70  SOPE      H8X           -13.4325471765       36.5122978882        6.2169112604  MEMB      70              0.0000000000
      7915        70  SOPE      H8Y           -12.7811666714       34.9021816195        6.2737417511  MEMB      70              0.0000000000
      7916        70  SOPE      C39           -11.4426597699       36.7086157114        6.5601626707  MEMB      70              0.0000000000
      7917        70  SOPE      H9X           -10.6637024306       36.2582590997        7.2118730021  MEMB      70              0.0000000000
      7918        70  SOPE      H9Y           -11.4671217440       37.7719521746        6.8811588193  MEMB      70              0.0000000000
      7919        70  SOPE      C310          -10.7751774084       36.5478429493        5.2293000093  MEMB      70              0.0000000000
      7920        70  SOPE      H10X          -11.4632277934       36.9433013335        4.4517902925  MEMB      70              0.0000000000
      7921        70  SOPE      H10Y          -10.5993917808       35.4754544226        4.9982082831  MEMB      70              0.0000000000
      7922        70  SOPE      C311           -9.3860462519       37.3258824145        5.3004125146  MEMB      70              0.0000000000
      7923        70  SOPE      H11X           -8.6819760885       36.6615478376        5.8456338515  MEMB      70              0.0000000000
      7924        70  SOPE      H11Y           -9.3386866299       38.3214862024        5.7911792480  MEMB      70              0.0000000000
      7925        70  SOPE      C312           -8.7491602253       37.3112279274        3.9435463522  MEMB      70              0.0000000000
      7926        70  SOPE      H12X           -8.6819033792       36.3090937666        3.4686523793  MEMB      70              0.0000000000
      7927        70  SOPE      H12Y           -7.7134030951       37.7115612575        3.9790607882  MEMB      70              0.0000000000
      7928        70  SOPE      C313           -9.4794904399       38.1625253959        2.8785194245  MEMB      70              0.0000000000
      7929        70  SOPE      H13X           -9.3489223559       39.2267136986        3.1696814596  MEMB      70              0.0000000000
      7930        70  SOPE      H13Y          -10.5529266947       37.9128129488        3.0188721269  MEMB      70              0.0000000000
      7931        70  SOPE      C314           -9.0381454254       38.0594422628        1.4138848085  MEMB      70              0.0000000000
      7932        70  SOPE      H14X           -9.9194164434       38.4120038630        0.8364921653  MEMB      70              0.0000000000
      7933        70  SOPE      H14Y           -8.9708627748       36.9544334131        1.3203473795  MEMB      70              0.0000000000
      7934        70  SOPE      C315           -7.8160850570       38.8343454232        0.8990237452  MEMB      70              0.0000000000
      7935        70  SOPE      H15X           -6.9936885062       38.8783750013        1.6447091291  MEMB      70              0.0000000000
      7936        70  SOPE      H15Y           -8.0919047698       39.8891169521        0.6852441074  MEMB      70              0.0000000000
      7937        70  SOPE      C316           -6.9705443635       38.2181739907       -0.3431536541  MEMB      70              0.0000000000
      7938        70  SOPE      H16X           -6.2570680471       39.0466814353       -0.5402498793  MEMB      70              0.0000000000
      7939        70  SOPE      H16Y           -7.7135620398       38.2090355295       -1.1690847915  MEMB      70              0.0000000000
      7940        70  SOPE      C317           -6.3204715594       36.7817255869       -0.1834917093  MEMB      70              0.0000000000
      7941        70  SOPE      H17X           -5.7769308319       36.5651157153       -1.1279305292  MEMB      70              0.0000000000
      7942        70  SOPE      H17Y           -6.9562031576       35.8718815082       -0.1350141593  MEMB      70              0.0000000000
      7943        70  SOPE      C318           -5.4104378451       36.5645103165        0.9920104159  MEMB      70              0.0000000000
      7944        70  SOPE      H18X           -4.9914387326       35.5503690446        0.8180042684  MEMB      70              0.0000000000
      7945        70  SOPE      H18Y           -5.9646553126       36.5929427412        1.9544851047  MEMB      70              0.0000000000
      7946        70  SOPE      H18Z           -4.5558443400       37.2743894377        0.9841314455  MEMB      70              0.0000000000
      7947        71  SAPE      N             -29.7180859846       15.6418900901       21.9782596401  MEMB      71              0.0000000000
      7948        71  SAPE      HN1           -29.0296516037       15.5198303524       22.7481683642  MEMB      71              0.0000000000
      7949        71  SAPE      HN2           -30.2194642009       14.7320804599       21.9285961439  MEMB      71              0.0000000000
      7950        71  SAPE      HN3           -29.2193009243       15.9517152150       21.1198764151  MEMB      71              0.0000000000
      7951        71  SAPE      C12           -30.5989408517       16.7771609552       22.4330506548  MEMB      71              0.0000000000
      7952        71  SAPE      H12A          -29.9722191155       17.6843027157       22.5695591788  MEMB      71              0.0000000000
      7953        71  SAPE      H12B          -31.0713988603       16.4411953463       23.3808012940  MEMB      71              0.0000000000
      7954        71  SAPE      C11           -31.5884373215       17.1326299312       21.3335854777  MEMB      71              0.0000000000
      7955        71  SAPE      H11A          -32.2806145811       17.9360782147       21.6647691078  MEMB      71              0.0000000000
      7956        71  SAPE      H11B          -32.1919264409       16.2380749341       21.0692122873  MEMB      71              0.0000000000
      7957        71  SAPE      P             -30.8267741686       16.9667336414       18.8168378515  MEMB      71              0.0000000000
      7958        71  SAPE      O13           -29.9846447876       17.8418246843       17.9329027210  MEMB      71              0.0000000000
      7959        71  SAPE      O14           -30.3317646304       15.5815173859       19.0566026232  MEMB      71              0.0000000000
      7960        71  SAPE      O12           -31.0173472487       17.8022100897       20.2213109560  MEMB      71              0.0000000000
      7961        71  SAPE      O11           -32.4150722032       17.0517140218       18.2274501063  MEMB      71              0.0000000000
      7962        71  SAPE      C1            -32.8024490241       18.1778429457       17.3871787962  MEMB      71              0.0000000000
      7963        71  SAPE      HA            -33.7547248278       18.5359987850       17.8335152333  MEMB      71              0.0000000000
      7964        71  SAPE      HB            -32.0577126967       18.9988209853       17.4625692816  MEMB      71              0.0000000000
      7965        71  SAPE      C2            -32.8168750428       17.8299187190       15.8866630101  MEMB      71              0.0000000000
      7966        71  SAPE      HS            -33.6120319614       17.0703245281       15.7283501187  MEMB      71              0.0000000000
      7967        71  SAPE      O21           -31.4832786396       17.4556038980       15.4432217527  MEMB      71              0.0000000000
      7968        71  SAPE      C21           -31.3294813958       16.3719682869       14.7126189548  MEMB      71              0.0000000000
      7969        71  SAPE      O22           -32.2072640525       15.6141132354       14.3128680944  MEMB      71              0.0000000000
      7970        71  SAPE      C22           -29.7736696559       16.3167683246       14.3979422156  MEMB      71              0.0000000000
      7971        71  SAPE      H2R           -29.5264761974       17.2066914480       13.7804849514  MEMB      71              0.0000000000
      7972        71  SAPE      H2S           -29.0908544624       16.1453162969       15.2574122590  MEMB      71              0.0000000000
      7973        71  SAPE      C3            -33.3392077855       19.1505669270       15.1340263311  MEMB      71              0.0000000000
      7974        71  SAPE      HX            -32.5818617065       19.9623873872       15.1752020283  MEMB      71              0.0000000000
      7975        71  SAPE      HY            -34.3065085925       19.5109262334       15.5448690409  MEMB      71              0.0000000000
      7976        71  SAPE      O31           -33.5932172040       18.7199503198       13.7466132141  MEMB      71              0.0000000000
      7977        71  SAPE      C31           -34.8071741222       18.2174609477       13.5040322489  MEMB      71              0.0000000000
      7978        71  SAPE      O32           -35.7375628484       18.0789123064       14.2930392884  MEMB      71              0.0000000000
      7979        71  SAPE      C32           -34.6558865565       17.5716108859       12.1191425650  MEMB      71              0.0000000000
      7980        71  SAPE      H2X           -35.5832999467       16.9919579602       11.9236222716  MEMB      71              0.0000000000
      7981        71  SAPE      H2Y           -33.7221494696       16.9853254467       11.9823021810  MEMB      71              0.0000000000
      7982        71  SAPE      C23           -29.4832196959       15.1586696215       13.3874338146  MEMB      71              0.0000000000
      7983        71  SAPE      H3R           -30.0040757557       14.2424291555       13.7389067861  MEMB      71              0.0000000000
      7984        71  SAPE      H3S           -28.3917634495       15.0224814934       13.5439494822  MEMB      71              0.0000000000
      7985        71  SAPE      C24           -29.7796474603       15.5710009839       11.9356445999  MEMB      71              0.0000000000
      7986        71  SAPE      H4R           -29.2459483668       16.5451910238       11.9146671470  MEMB      71              0.0000000000
      7987        71  SAPE      H4S           -30.8621766194       15.8163055684       11.8879243409  MEMB      71              0.0000000000
      7988        71  SAPE      C25           -29.3560556440       14.6272947705       10.8281065047  MEMB      71              0.0000000000
      7989        71  SAPE      H5R           -28.3741548751       14.8094743965       10.3669318452  MEMB      71              0.0000000000
      7990        71  SAPE      C26           -30.0182072165       13.5791890659       10.3090224627  MEMB      71              0.0000000000
      7991        71  SAPE      H6R           -29.5740874486       13.0605647349        9.4465919544  MEMB      71              0.0000000000
      7992        71  SAPE      C27           -31.4055143490       13.1824525348       10.8098677194  MEMB      71              0.0000000000
      7993        71  SAPE      H7R           -31.5167848360       13.2446217024       11.9135313873  MEMB      71              0.0000000000
      7994        71  SAPE      H7S           -31.5247658764       12.0947699397       10.6173931341  MEMB      71              0.0000000000
      7995        71  SAPE      C28           -32.6182307751       13.8508624183       10.2681444730  MEMB      71              0.0000000000
      7996        71  SAPE      H8R           -33.2235372483       14.3251834779       11.0546710794  MEMB      71              0.0000000000
      7997        71  SAPE      C29           -33.0973735266       13.8531060633        8.9892309733  MEMB      71              0.0000000000
      7998        71  SAPE      H9R           -34.1153761258       14.1652185831        8.7130854157  MEMB      71              0.0000000000
      7999        71  SAPE      C210          -32.4438271788       13.1058933960        7.8780429503  MEMB      71              0.0000000000
      8000        71  SAPE      H10R          -33.2461187224       12.8451563670        7.1550863200  MEMB      71              0.0000000000
      8001        71  SAPE      H10S          -32.0592561213       12.1039205709        8.1652305386  MEMB      71              0.0000000000
      8002        71  SAPE      C211          -31.3902451586       13.8617024144        7.1362938931  MEMB      71              0.0000000000
      8003        71  SAPE      H11R          -30.3651073496       13.7597862202        7.5219169919  MEMB      71              0.0000000000
      8004        71  SAPE      C212          -31.6440262344       14.7297681957        6.1613729507  MEMB      71              0.0000000000
      8005        71  SAPE      H12R          -30.8654837895       15.2833440733        5.6160051670  MEMB      71              0.0000000000
      8006        71  SAPE      C213          -33.0719025972       15.0873002406        5.6674879383  MEMB      71              0.0000000000
      8007        71  SAPE      H13R          -33.5231042280       15.6615035266        6.5047620787  MEMB      71              0.0000000000
      8008        71  SAPE      H13S          -33.7331293339       14.2256697129        5.4336226518  MEMB      71              0.0000000000
      8009        71  SAPE      C214          -33.3425097934       16.0677277487        4.4887833044  MEMB      71              0.0000000000
      8010        71  SAPE      H14R          -33.9083854918       16.9693357598        4.7660696960  MEMB      71              0.0000000000
      8011        71  SAPE      C215          -33.1348024293       15.9063309682        3.1550600662  MEMB      71              0.0000000000
      8012        71  SAPE      H15R          -33.6104499603       16.6492634130        2.4979368423  MEMB      71              0.0000000000
      8013        71  SAPE      C216          -32.5597369455       14.7056805353        2.5046639148  MEMB      71              0.0000000000
      8014        71  SAPE      H16R          -32.8738307611       13.8516274219        3.1420488310  MEMB      71              0.0000000000
      8015        71  SAPE      H16S          -31.4491539488       14.6772050905        2.5154130673  MEMB      71              0.0000000000
      8016        71  SAPE      C217          -32.9759818918       14.6712894051        1.0370894380  MEMB      71              0.0000000000
      8017        71  SAPE      H17R          -32.5357122042       13.7418383257        0.6168465841  MEMB      71              0.0000000000
      8018        71  SAPE      H17S          -32.7114541196       15.6170035795        0.5175029345  MEMB      71              0.0000000000
      8019        71  SAPE      C218          -34.5008864212       14.4789469116        0.7139768705  MEMB      71              0.0000000000
      8020        71  SAPE      H18R          -35.0560103466       15.3898461392        1.0244938209  MEMB      71              0.0000000000
      8021        71  SAPE      H18S          -34.9387107055       13.6120662685        1.2535579555  MEMB      71              0.0000000000
      8022        71  SAPE      C219          -34.7018513435       14.1519589052       -0.8239617664  MEMB      71              0.0000000000
      8023        71  SAPE      H19R          -34.1138858268       14.8899234538       -1.4104985631  MEMB      71              0.0000000000
      8024        71  SAPE      H19S          -35.7670907299       14.3644587005       -1.0572641120  MEMB      71              0.0000000000
      8025        71  SAPE      C220          -34.3353969868       12.6860428738       -1.2694217764  MEMB      71              0.0000000000
      8026        71  SAPE      H20R          -34.6100433505       12.5147079703       -2.3322180259  MEMB      71              0.0000000000
      8027        71  SAPE      H20S          -34.7894026540       11.8718914386       -0.6649733048  MEMB      71              0.0000000000
      8028        71  SAPE      H20T          -33.2376786411       12.5836260139       -1.4067013272  MEMB      71              0.0000000000
      8029        71  SAPE      C33           -34.6872266403       18.6229155431       11.0266704544  MEMB      71              0.0000000000
      8030        71  SAPE      H3X           -35.6149451217       19.2341895629       11.0285939603  MEMB      71              0.0000000000
      8031        71  SAPE      H3Y           -34.7121415159       17.9898701224       10.1140076285  MEMB      71              0.0000000000
      8032        71  SAPE      C34           -33.5435371424       19.7238082971       10.9273521244  MEMB      71              0.0000000000
      8033        71  SAPE      H4X           -33.4705525715       20.3732693863       11.8257920885  MEMB      71              0.0000000000
      8034        71  SAPE      H4Y           -33.8136771788       20.2993262521       10.0162403921  MEMB      71              0.0000000000
      8035        71  SAPE      C35           -32.1326238471       19.0395241721       10.7561596177  MEMB      71              0.0000000000
      8036        71  SAPE      H5X           -32.1083305200       18.0636106182       10.2257601691  MEMB      71              0.0000000000
      8037        71  SAPE      H5Y           -31.6216822553       18.8024089955       11.7137792404  MEMB      71              0.0000000000
      8038        71  SAPE      C36           -31.2251170491       19.9910064336        9.9197141379  MEMB      71              0.0000000000
      8039        71  SAPE      H6X           -30.9209138979       20.9339690886       10.4223102514  MEMB      71              0.0000000000
      8040        71  SAPE      H6Y           -31.7116990366       20.2037204727        8.9438499035  MEMB      71              0.0000000000
      8041        71  SAPE      C37           -29.8803469953       19.3526634726        9.5116529579  MEMB      71              0.0000000000
      8042        71  SAPE      H7X           -30.1656080074       18.4765309374        8.8908964843  MEMB      71              0.0000000000
      8043        71  SAPE      H7Y           -29.3696849883       19.0166612157       10.4393648106  MEMB      71              0.0000000000
      8044        71  SAPE      C38           -28.8706634423       20.1321885367        8.6782554668  MEMB      71              0.0000000000
      8045        71  SAPE      H8X           -28.6083934434       21.0215126368        9.2903324538  MEMB      71              0.0000000000
      8046        71  SAPE      H8Y           -29.4572754960       20.5457864475        7.8302321215  MEMB      71              0.0000000000
      8047        71  SAPE      C39           -27.7023430958       19.2748679869        8.2437261798  MEMB      71              0.0000000000
      8048        71  SAPE      H9X           -27.1145040206       18.9748539843        9.1374587947  MEMB      71              0.0000000000
      8049        71  SAPE      H9Y           -27.0890753159       19.9480578099        7.6072987614  MEMB      71              0.0000000000
      8050        71  SAPE      C310          -27.9267168848       18.0937440082        7.2652552030  MEMB      71              0.0000000000
      8051        71  SAPE      H10X          -28.4931156428       17.3219785376        7.8290740023  MEMB      71              0.0000000000
      8052        71  SAPE      H10Y          -27.0172346969       17.5069786294        7.0145173064  MEMB      71              0.0000000000
      8053        71  SAPE      C311          -28.5849637679       18.5111569606        5.9765192206  MEMB      71              0.0000000000
      8054        71  SAPE      H11X          -29.5279596523       19.0698955858        6.1578767624  MEMB      71              0.0000000000
      8055        71  SAPE      H11Y          -29.0178342961       17.6703172188        5.3934807375  MEMB      71              0.0000000000
      8056        71  SAPE      C312          -27.7590297370       19.3316124835        4.9713372006  MEMB      71              0.0000000000
      8057        71  SAPE      H12X          -27.0461272322       18.5827633451        4.5647457407  MEMB      71              0.0000000000
      8058        71  SAPE      H12Y          -27.2485745703       20.2071057951        5.4266034943  MEMB      71              0.0000000000
      8059        71  SAPE      C313          -28.5985177476       19.9330956030        3.8362277462  MEMB      71              0.0000000000
      8060        71  SAPE      H13X          -27.8926486530       20.6446346343        3.3568731894  MEMB      71              0.0000000000
      8061        71  SAPE      H13Y          -29.4516690795       20.4757739881        4.2966122641  MEMB      71              0.0000000000
      8062        71  SAPE      C314          -29.0579108909       19.0164206036        2.7762940479  MEMB      71              0.0000000000
      8063        71  SAPE      H14X          -29.7067608795       18.2779622461        3.2939755885  MEMB      71              0.0000000000
      8064        71  SAPE      H14Y          -28.2594695212       18.3673537671        2.3573378249  MEMB      71              0.0000000000
      8065        71  SAPE      C315          -29.8383684065       19.7296210951        1.6435157980  MEMB      71              0.0000000000
      8066        71  SAPE      H15X          -29.2346958855       20.4826362257        1.0931807794  MEMB      71              0.0000000000
      8067        71  SAPE      H15Y          -30.6105976145       20.3675322616        2.1241952536  MEMB      71              0.0000000000
      8068        71  SAPE      C316          -30.4720740810       18.7157973894        0.7232826370  MEMB      71              0.0000000000
      8069        71  SAPE      H16X          -31.1309516422       18.0433824489        1.3132471079  MEMB      71              0.0000000000
      8070        71  SAPE      H16Y          -29.7103477931       17.9680330404        0.4151553458  MEMB      71              0.0000000000
      8071        71  SAPE      C317          -31.2380542627       19.1875858816       -0.5200779891  MEMB      71              0.0000000000
      8072        71  SAPE      H17X          -30.5420266142       19.8362178375       -1.0937891206  MEMB      71              0.0000000000
      8073        71  SAPE      H17Y          -32.0210668802       19.9430603727       -0.2954227218  MEMB      71              0.0000000000
      8074        71  SAPE      C318          -31.9082490056       18.0321262860       -1.2797725547  MEMB      71              0.0000000000
      8075        71  SAPE      H18X          -32.6477498200       17.3866998908       -0.7593063203  MEMB      71              0.0000000000
      8076        71  SAPE      H18Y          -31.1234057187       17.3530761752       -1.6762979289  MEMB      71              0.0000000000
      8077        71  SAPE      H18Z          -32.3578667712       18.4413922663       -2.2096465591  MEMB      71              0.0000000000
      8078        72  SLPC      N              22.8164541589       26.5112486040       17.5754517778  MEMB      72              0.0000000000
      8079        72  SLPC      C13            22.1972533505       27.6428142078       18.3295067496  MEMB      72              0.0000000000
      8080        72  SLPC      H13A           21.8785574148       28.4007666233       17.6292631847  MEMB      72              0.0000000000
      8081        72  SLPC      H13B           21.3553577795       27.2377903867       18.8713251851  MEMB      72              0.0000000000
      8082        72  SLPC      H13C           22.9478574513       28.1649437034       18.9042887732  MEMB      72              0.0000000000
      8083        72  SLPC      C14            21.6652223510       26.0397217917       16.6630907054  MEMB      72              0.0000000000
      8084        72  SLPC      H14A           21.9577934165       25.4711845654       15.7927070942  MEMB      72              0.0000000000
      8085        72  SLPC      H14B           21.0000155197       25.5042924174       17.3243131993  MEMB      72              0.0000000000
      8086        72  SLPC      H14C           21.1788192837       26.9199946024       16.2694773109  MEMB      72              0.0000000000
      8087        72  SLPC      C15            23.2135031152       25.4288969250       18.5639799101  MEMB      72              0.0000000000
      8088        72  SLPC      H15A           23.8532750192       24.7481328209       18.0220829670  MEMB      72              0.0000000000
      8089        72  SLPC      H15B           23.8222328060       25.8338943372       19.3588541647  MEMB      72              0.0000000000
      8090        72  SLPC      H15C           22.3556494274       24.8279693878       18.8273676403  MEMB      72              0.0000000000
      8091        72  SLPC      C12            24.0137636898       26.9954182965       16.8041337061  MEMB      72              0.0000000000
      8092        72  SLPC      H12A           24.8139918452       27.1344089343       17.5159739776  MEMB      72              0.0000000000
      8093        72  SLPC      H12B           23.8212990649       27.9666900475       16.3728695699  MEMB      72              0.0000000000
      8094        72  SLPC      C11            24.5512176784       25.9959091556       15.7052781227  MEMB      72              0.0000000000
      8095        72  SLPC      H11A           25.4501801082       26.4241207591       15.2125081024  MEMB      72              0.0000000000
      8096        72  SLPC      H11B           23.8665337066       25.8149550144       14.8492497311  MEMB      72              0.0000000000
      8097        72  SLPC      P              26.4163692958       24.5542324540       16.7744482708  MEMB      72              0.0000000000
      8098        72  SLPC      O13            26.8410536834       25.7015474231       17.5542677557  MEMB      72              0.0000000000
      8099        72  SLPC      O14            26.6649763479       23.2215931367       17.4179707342  MEMB      72              0.0000000000
      8100        72  SLPC      O12            24.9009285283       24.7299717601       16.2863168933  MEMB      72              0.0000000000
      8101        72  SLPC      O11            27.0686250097       24.6354438247       15.3255554175  MEMB      72              0.0000000000
      8102        72  SLPC      C1             28.4800661303       24.3722054468       15.1338791542  MEMB      72              0.0000000000
      8103        72  SLPC      HA             29.0666776832       25.2199941199       15.5479592679  MEMB      72              0.0000000000
      8104        72  SLPC      HB             28.8514121134       23.5096250097       15.7274937863  MEMB      72              0.0000000000
      8105        72  SLPC      C2             28.7898522772       24.0210147980       13.6111426025  MEMB      72              0.0000000000
      8106        72  SLPC      HS             29.8536590687       24.3080548287       13.4688616192  MEMB      72              0.0000000000
      8107        72  SLPC      O21            28.1009253368       24.8737724482       12.7041056737  MEMB      72              0.0000000000
      8108        72  SLPC      C21            28.2149580944       26.1712824237       12.8222256205  MEMB      72              0.0000000000
      8109        72  SLPC      O22            29.0011227928       26.7783694299       13.5486919444  MEMB      72              0.0000000000
      8110        72  SLPC      C22            27.2020773669       26.8071721271       11.8804810125  MEMB      72              0.0000000000
      8111        72  SLPC      H2R            26.6065787815       27.5311736682       12.4767394084  MEMB      72              0.0000000000
      8112        72  SLPC      H2S            27.6645631220       27.5403509528       11.1855877095  MEMB      72              0.0000000000
      8113        72  SLPC      C3             28.4712224546       22.5662687254       13.2006695347  MEMB      72              0.0000000000
      8114        72  SLPC      HX             29.1764830857       21.9781222723       13.8259789890  MEMB      72              0.0000000000
      8115        72  SLPC      HY             28.7274844609       22.4400046958       12.1270271168  MEMB      72              0.0000000000
      8116        72  SLPC      O31            27.0521983819       22.4178091162       13.3623684307  MEMB      72              0.0000000000
      8117        72  SLPC      C31            26.7071836843       21.5586982123       14.2737315762  MEMB      72              0.0000000000
      8118        72  SLPC      O32            27.4475652236       21.0493946138       15.1120984305  MEMB      72              0.0000000000
      8119        72  SLPC      C32            25.1057307011       21.4115496762       14.2072180684  MEMB      72              0.0000000000
      8120        72  SLPC      H2X            24.8111132761       21.0591887245       15.2188324466  MEMB      72              0.0000000000
      8121        72  SLPC      H2Y            24.9404726471       20.5840255984       13.4845741820  MEMB      72              0.0000000000
      8122        72  SLPC      C23            26.3278548945       25.9300273332       10.9733335610  MEMB      72              0.0000000000
      8123        72  SLPC      H3R            25.5158240473       26.6453881672       10.7219659344  MEMB      72              0.0000000000
      8124        72  SLPC      H3S            25.9867314071       25.0656065476       11.5822116570  MEMB      72              0.0000000000
      8125        72  SLPC      C24            27.1042222728       25.4937498005        9.6813843087  MEMB      72              0.0000000000
      8126        72  SLPC      H4R            28.0215225581       24.9189555899        9.9313700911  MEMB      72              0.0000000000
      8127        72  SLPC      H4S            27.4273827038       26.4586501455        9.2354518840  MEMB      72              0.0000000000
      8128        72  SLPC      C25            26.2339199845       24.5831204675        8.7707170182  MEMB      72              0.0000000000
      8129        72  SLPC      H5R            26.7427457737       24.5351373516        7.7842515237  MEMB      72              0.0000000000
      8130        72  SLPC      H5S            25.2580301874       25.0840574407        8.5945855790  MEMB      72              0.0000000000
      8131        72  SLPC      C26            25.8813478112       23.2257014630        9.4820577841  MEMB      72              0.0000000000
      8132        72  SLPC      H6R            25.1456147987       23.3308669618       10.3078655210  MEMB      72              0.0000000000
      8133        72  SLPC      H6S            26.8301500848       22.8219532273        9.8956791295  MEMB      72              0.0000000000
      8134        72  SLPC      C27            25.4207566518       22.1540535489        8.4496114822  MEMB      72              0.0000000000
      8135        72  SLPC      H7R            24.5408020176       22.6054930649        7.9434468357  MEMB      72              0.0000000000
      8136        72  SLPC      H7S            25.0573951518       21.4114490443        9.1917893718  MEMB      72              0.0000000000
      8137        72  SLPC      C28            26.3918330552       21.5413538262        7.4251985095  MEMB      72              0.0000000000
      8138        72  SLPC      H8R            26.7336683518       22.3461414073        6.7397890871  MEMB      72              0.0000000000
      8139        72  SLPC      H8S            25.7540254617       20.9496522210        6.7342483589  MEMB      72              0.0000000000
      8140        72  SLPC      C29            27.5334504139       20.6945828066        7.9768267491  MEMB      72              0.0000000000
      8141        72  SLPC      H9R            27.4226581412       20.2619928818        8.9821083347  MEMB      72              0.0000000000
      8142        72  SLPC      C210           28.7172055444       20.5717130548        7.4322208725  MEMB      72              0.0000000000
      8143        72  SLPC      H10R           29.5104736348       20.0348295126        7.9730365703  MEMB      72              0.0000000000
      8144        72  SLPC      C211           29.1695743387       21.2236443861        6.1078448988  MEMB      72              0.0000000000
      8145        72  SLPC      H11R           28.2675522780       21.4501564615        5.5000873137  MEMB      72              0.0000000000
      8146        72  SLPC      H11S           29.6013993617       20.4159415457        5.4789854959  MEMB      72              0.0000000000
      8147        72  SLPC      C212           30.1499939025       22.3674064662        6.1614664473  MEMB      72              0.0000000000
      8148        72  SLPC      H12R           30.2976942792       22.7292027781        7.1897111457  MEMB      72              0.0000000000
      8149        72  SLPC      C213           30.9440368107       22.6985991355        5.1461290297  MEMB      72              0.0000000000
      8150        72  SLPC      H13R           31.7824954849       23.3860822030        5.3314774302  MEMB      72              0.0000000000
      8151        72  SLPC      C214           30.9952823205       22.0666189554        3.7971932384  MEMB      72              0.0000000000
      8152        72  SLPC      H14R           30.7836911862       20.9785383066        3.7221574418  MEMB      72              0.0000000000
      8153        72  SLPC      H14S           32.0291868823       22.0708310091        3.3905672825  MEMB      72              0.0000000000
      8154        72  SLPC      C215           30.0799217084       22.7577834464        2.8318114372  MEMB      72              0.0000000000
      8155        72  SLPC      H15R           30.4904149462       22.2621496722        1.9261822702  MEMB      72              0.0000000000
      8156        72  SLPC      H15S           30.2842774702       23.8293772212        2.6214625537  MEMB      72              0.0000000000
      8157        72  SLPC      C216           28.5988564119       22.6221395207        2.9157099079  MEMB      72              0.0000000000
      8158        72  SLPC      H16R           28.3360772957       23.3721550582        3.6920772056  MEMB      72              0.0000000000
      8159        72  SLPC      H16S           28.1667463978       21.6090479265        3.0614754247  MEMB      72              0.0000000000
      8160        72  SLPC      C217           27.9845006119       23.1204433633        1.5881679414  MEMB      72              0.0000000000
      8161        72  SLPC      H17R           28.3167323170       24.1707999592        1.4443125749  MEMB      72              0.0000000000
      8162        72  SLPC      H17S           26.8859228823       23.2461780324        1.6960505097  MEMB      72              0.0000000000
      8163        72  SLPC      C218           28.2024884082       22.3333167943        0.3030359246  MEMB      72              0.0000000000
      8164        72  SLPC      H18R           27.5274161895       21.4739112043        0.1029843704  MEMB      72              0.0000000000
      8165        72  SLPC      H18S           29.2936054708       22.1244101967        0.3149776859  MEMB      72              0.0000000000
      8166        72  SLPC      H18T           27.8394472179       22.9597018376       -0.5396773139  MEMB      72              0.0000000000
      8167        72  SLPC      C33            24.3394708214       22.5753894804       13.6055680739  MEMB      72              0.0000000000
      8168        72  SLPC      H3X            24.6800948330       22.9027569868       12.6000198980  MEMB      72              0.0000000000
      8169        72  SLPC      H3Y            24.4988225387       23.4639002398       14.2532383608  MEMB      72              0.0000000000
      8170        72  SLPC      C34            22.8195323623       22.2927505187       13.4387766107  MEMB      72              0.0000000000
      8171        72  SLPC      H4X            22.3252783102       22.0714368513       14.4088560841  MEMB      72              0.0000000000
      8172        72  SLPC      H4Y            22.7044668864       21.3732789352       12.8258714522  MEMB      72              0.0000000000
      8173        72  SLPC      C35            22.0836769057       23.4962883965       12.8707948005  MEMB      72              0.0000000000
      8174        72  SLPC      H5X            22.1544406030       24.3044449065       13.6298709988  MEMB      72              0.0000000000
      8175        72  SLPC      H5Y            21.0422797396       23.1424384248       12.7139393940  MEMB      72              0.0000000000
      8176        72  SLPC      C36            22.7108221379       24.1380200888       11.6447611250  MEMB      72              0.0000000000
      8177        72  SLPC      H6X            22.9706053547       23.2870104135       10.9794675450  MEMB      72              0.0000000000
      8178        72  SLPC      H6Y            23.7278586661       24.5025293641       11.9037803028  MEMB      72              0.0000000000
      8179        72  SLPC      C37            21.9621794648       25.2761665204       10.9999439557  MEMB      72              0.0000000000
      8180        72  SLPC      H7X            21.8699053354       26.2271312190       11.5669296404  MEMB      72              0.0000000000
      8181        72  SLPC      H7Y            20.9153783272       24.9198434835       10.8924164030  MEMB      72              0.0000000000
      8182        72  SLPC      C38            22.4932188682       25.8483676748        9.7168171120  MEMB      72              0.0000000000
      8183        72  SLPC      H8X            23.5874262763       26.0235684280        9.7964139655  MEMB      72              0.0000000000
      8184        72  SLPC      H8Y            22.0240944872       26.8519089355        9.6322695743  MEMB      72              0.0000000000
      8185        72  SLPC      C39            22.1770279028       24.9832108451        8.4579778488  MEMB      72              0.0000000000
      8186        72  SLPC      H9X            21.3291859011       24.2739954258        8.5697752444  MEMB      72              0.0000000000
      8187        72  SLPC      H9Y            23.0022560730       24.2697614284        8.2474799830  MEMB      72              0.0000000000
      8188        72  SLPC      C310           21.9063598527       25.9157308908        7.1932404317  MEMB      72              0.0000000000
      8189        72  SLPC      H10X           21.3055797897       26.7348835876        7.6430994164  MEMB      72              0.0000000000
      8190        72  SLPC      H10Y           21.4719618509       25.3173486098        6.3640493348  MEMB      72              0.0000000000
      8191        72  SLPC      C311           23.1010084880       26.6287372889        6.6002755401  MEMB      72              0.0000000000
      8192        72  SLPC      H11X           23.7809072299       26.9965120391        7.3982727579  MEMB      72              0.0000000000
      8193        72  SLPC      H11Y           22.7248709617       27.4758374332        5.9876881060  MEMB      72              0.0000000000
      8194        72  SLPC      C312           23.9467416212       25.6477737188        5.7596952008  MEMB      72              0.0000000000
      8195        72  SLPC      H12X           23.2947086646       25.0860706246        5.0570836809  MEMB      72              0.0000000000
      8196        72  SLPC      H12Y           24.4590480721       24.9149185511        6.4190787912  MEMB      72              0.0000000000
      8197        72  SLPC      C313           24.9930605084       26.3162789852        4.8326154607  MEMB      72              0.0000000000
      8198        72  SLPC      H13X           24.5930903241       27.1815500270        4.2619574385  MEMB      72              0.0000000000
      8199        72  SLPC      H13Y           25.5494293626       25.5901130150        4.2021733980  MEMB      72              0.0000000000
      8200        72  SLPC      C314           26.2260365567       26.8355385142        5.7184513792  MEMB      72              0.0000000000
      8201        72  SLPC      H14X           26.4186829418       26.0092639159        6.4357231047  MEMB      72              0.0000000000
      8202        72  SLPC      H14Y           25.8253155490       27.7135079888        6.2688273570  MEMB      72              0.0000000000
      8203        72  SLPC      C315           27.5171424421       27.2896038200        4.9601536405  MEMB      72              0.0000000000
      8204        72  SLPC      H15X           27.9802106986       26.4169804016        4.4518054370  MEMB      72              0.0000000000
      8205        72  SLPC      H15Y           28.2968414528       27.6077640978        5.6848356305  MEMB      72              0.0000000000
      8206        72  SLPC      C316           27.5417337544       28.4537705143        3.9698535503  MEMB      72              0.0000000000
      8207        72  SLPC      H16X           27.1398205491       29.4158710354        4.3534544087  MEMB      72              0.0000000000
      8208        72  SLPC      H16Y           27.0423742334       28.0687847479        3.0551151158  MEMB      72              0.0000000000
      8209        72  SLPC      C317           28.9081636092       28.8714926329        3.3879516676  MEMB      72              0.0000000000
      8210        72  SLPC      H17X           29.4385743237       29.4806467159        4.1507864503  MEMB      72              0.0000000000
      8211        72  SLPC      H17Y           28.7474679731       29.4507599877        2.4536353706  MEMB      72              0.0000000000
      8212        72  SLPC      C318           29.9173238657       27.7608876250        3.0662470011  MEMB      72              0.0000000000
      8213        72  SLPC      H18X           29.4093444209       26.9415351699        2.5140336137  MEMB      72              0.0000000000
      8214        72  SLPC      H18Y           30.3495149845       27.1820757157        3.9103490317  MEMB      72              0.0000000000
      8215        72  SLPC      H18Z           30.7567706281       28.1160279018        2.4310103118  MEMB      72              0.0000000000
      8216        73  SLPC      N              30.1379593097       20.6302478657       15.2345231603  MEMB      73              0.0000000000
      8217        73  SLPC      C13            29.2003908222       19.5593192363       15.2181585509  MEMB      73              0.0000000000
      8218        73  SLPC      H13A           29.6434490580       18.6854941298       14.7637036107  MEMB      73              0.0000000000
      8219        73  SLPC      H13B           28.9024325700       19.2314549755       16.2031082223  MEMB      73              0.0000000000
      8220        73  SLPC      H13C           28.3745277176       19.9345756227       14.6320419959  MEMB      73              0.0000000000
      8221        73  SLPC      C14            29.4428830625       21.8585203949       15.7071085903  MEMB      73              0.0000000000
      8222        73  SLPC      H14A           28.5554831775       21.8883863006       15.0922676963  MEMB      73              0.0000000000
      8223        73  SLPC      H14B           29.1158104509       21.5911667980       16.7010630913  MEMB      73              0.0000000000
      8224        73  SLPC      H14C           30.1038151241       22.7125856455       15.6952233599  MEMB      73              0.0000000000
      8225        73  SLPC      C15            30.6228383434       20.8901150513       13.8731017223  MEMB      73              0.0000000000
      8226        73  SLPC      H15A           31.2396452157       21.7766506888       13.8711030478  MEMB      73              0.0000000000
      8227        73  SLPC      H15B           31.1511375855       20.0243740191       13.5018975264  MEMB      73              0.0000000000
      8228        73  SLPC      H15C           29.7465206351       20.9542396416       13.2451245804  MEMB      73              0.0000000000
      8229        73  SLPC      C12            31.3068970412       20.1285208639       16.1049048810  MEMB      73              0.0000000000
      8230        73  SLPC      H12A           32.2373530946       20.6603072602       15.9712839577  MEMB      73              0.0000000000
      8231        73  SLPC      H12B           31.5642452659       19.0819124829       16.0357468525  MEMB      73              0.0000000000
      8232        73  SLPC      C11            31.1418471730       20.3268249137       17.6007889135  MEMB      73              0.0000000000
      8233        73  SLPC      H11A           31.1030276242       21.4239889025       17.7712152304  MEMB      73              0.0000000000
      8234        73  SLPC      H11B           32.0488553888       19.9809713868       18.1411984961  MEMB      73              0.0000000000
      8235        73  SLPC      P              29.7324465053       18.4115293469       18.7494270801  MEMB      73              0.0000000000
      8236        73  SLPC      O13            30.2708746436       18.3439120610       20.1342364791  MEMB      73              0.0000000000
      8237        73  SLPC      O14            28.3951362438       17.8332305650       18.4774768324  MEMB      73              0.0000000000
      8238        73  SLPC      O12            29.9001671323       19.8014265639       18.0945455614  MEMB      73              0.0000000000
      8239        73  SLPC      O11            30.7927578827       17.5822269754       17.8057282117  MEMB      73              0.0000000000
      8240        73  SLPC      C1             30.2837307815       16.3844775788       17.1861993372  MEMB      73              0.0000000000
      8241        73  SLPC      HA             29.8192539717       15.7140521163       17.9405942200  MEMB      73              0.0000000000
      8242        73  SLPC      HB             29.5909314700       16.7368053405       16.3923382163  MEMB      73              0.0000000000
      8243        73  SLPC      C2             31.4232546152       15.5833998916       16.5038755409  MEMB      73              0.0000000000
      8244        73  SLPC      HS             32.1294328726       15.1501516506       17.2440978885  MEMB      73              0.0000000000
      8245        73  SLPC      O21            32.0691797186       16.5301821055       15.6302770208  MEMB      73              0.0000000000
      8246        73  SLPC      C21            33.3808965097       16.3798036574       15.4175692225  MEMB      73              0.0000000000
      8247        73  SLPC      O22            34.1496247178       15.6583347357       16.0226756422  MEMB      73              0.0000000000
      8248        73  SLPC      C22            33.7508778966       17.3067339393       14.3408562460  MEMB      73              0.0000000000
      8249        73  SLPC      H2R            32.9284182243       17.2720520780       13.5947474740  MEMB      73              0.0000000000
      8250        73  SLPC      H2S            34.0047030126       18.3146129996       14.7333779527  MEMB      73              0.0000000000
      8251        73  SLPC      C3             30.9688369460       14.3768872875       15.6404739334  MEMB      73              0.0000000000
      8252        73  SLPC      HX             30.9682288915       13.4590413570       16.2664765722  MEMB      73              0.0000000000
      8253        73  SLPC      HY             31.7859663130       14.1536739880       14.9215883574  MEMB      73              0.0000000000
      8254        73  SLPC      O31            29.6602539898       14.6292393168       15.0796731281  MEMB      73              0.0000000000
      8255        73  SLPC      C31            29.6328877233       14.9726499101       13.8282969895  MEMB      73              0.0000000000
      8256        73  SLPC      O32            30.6396064017       15.1886529510       13.1121594633  MEMB      73              0.0000000000
      8257        73  SLPC      C32            28.1687521341       15.0101800563       13.4208126240  MEMB      73              0.0000000000
      8258        73  SLPC      H2X            27.6799642088       14.4231258789       14.2275185112  MEMB      73              0.0000000000
      8259        73  SLPC      H2Y            28.0776307529       14.4032031358       12.4947471867  MEMB      73              0.0000000000
      8260        73  SLPC      C23            35.0228445636       16.6605217210       13.7024534658  MEMB      73              0.0000000000
      8261        73  SLPC      H3R            34.9789121988       15.5785878761       13.4538379837  MEMB      73              0.0000000000
      8262        73  SLPC      H3S            35.9237045412       16.7939451249       14.3388264892  MEMB      73              0.0000000000
      8263        73  SLPC      C24            35.3917419050       17.3801910106       12.3750589741  MEMB      73              0.0000000000
      8264        73  SLPC      H4R            36.3794179505       16.9566255798       12.0932616230  MEMB      73              0.0000000000
      8265        73  SLPC      H4S            35.4221264793       18.4905259936       12.3985955200  MEMB      73              0.0000000000
      8266        73  SLPC      C25            34.3962365306       17.1788662208       11.1755264670  MEMB      73              0.0000000000
      8267        73  SLPC      H5R            34.8662600821       17.7926964849       10.3776471313  MEMB      73              0.0000000000
      8268        73  SLPC      H5S            33.4738511618       17.7173043247       11.4814850961  MEMB      73              0.0000000000
      8269        73  SLPC      C26            34.2033739296       15.7461067584       10.8292428034  MEMB      73              0.0000000000
      8270        73  SLPC      H6R            33.9104952899       15.2286315910       11.7677322738  MEMB      73              0.0000000000
      8271        73  SLPC      H6S            35.1680177946       15.3121535933       10.4894369492  MEMB      73              0.0000000000
      8272        73  SLPC      C27            33.1516098533       15.4154014051        9.7812203485  MEMB      73              0.0000000000
      8273        73  SLPC      H7R            33.2431228027       16.0922173245        8.9049399795  MEMB      73              0.0000000000
      8274        73  SLPC      H7S            32.1550423788       15.4952196534       10.2657856143  MEMB      73              0.0000000000
      8275        73  SLPC      C28            33.4359984704       13.9885930619        9.2751130038  MEMB      73              0.0000000000
      8276        73  SLPC      H8R            33.7349655570       13.3429861688       10.1284191544  MEMB      73              0.0000000000
      8277        73  SLPC      H8S            34.3600455675       14.3135422708        8.7508359356  MEMB      73              0.0000000000
      8278        73  SLPC      C29            32.3346040538       13.4193410551        8.4044745906  MEMB      73              0.0000000000
      8279        73  SLPC      H9R            31.3509744614       13.1322674121        8.8045519062  MEMB      73              0.0000000000
      8280        73  SLPC      C210           32.3074039107       13.2145916913        7.0121445140  MEMB      73              0.0000000000
      8281        73  SLPC      H10R           31.3686249197       12.7939225872        6.6226168714  MEMB      73              0.0000000000
      8282        73  SLPC      C211           33.4102766874       13.5454361973        6.0462460626  MEMB      73              0.0000000000
      8283        73  SLPC      H11R           33.3660404844       12.7618537906        5.2598863808  MEMB      73              0.0000000000
      8284        73  SLPC      H11S           34.3981082840       13.4993234484        6.5525895049  MEMB      73              0.0000000000
      8285        73  SLPC      C212           33.0459500252       14.8802165910        5.3766937562  MEMB      73              0.0000000000
      8286        73  SLPC      H12R           32.2527081420       15.5144081121        5.7992674949  MEMB      73              0.0000000000
      8287        73  SLPC      C213           33.5206338024       15.2973477509        4.1469295166  MEMB      73              0.0000000000
      8288        73  SLPC      H13R           33.0950745547       16.1792570849        3.6457952335  MEMB      73              0.0000000000
      8289        73  SLPC      C214           34.4863676382       14.5693876554        3.2068474680  MEMB      73              0.0000000000
      8290        73  SLPC      H14R           34.7804663175       13.6088135137        3.6813203065  MEMB      73              0.0000000000
      8291        73  SLPC      H14S           35.3499852249       15.2666258979        3.2552664344  MEMB      73              0.0000000000
      8292        73  SLPC      C215           34.1483850464       14.1618980912        1.7905591432  MEMB      73              0.0000000000
      8293        73  SLPC      H15R           33.1596042866       13.6669163721        1.6827343742  MEMB      73              0.0000000000
      8294        73  SLPC      H15S           34.8938670850       13.4685465470        1.3457654995  MEMB      73              0.0000000000
      8295        73  SLPC      C216           34.2729688145       15.4108191921        0.9326206037  MEMB      73              0.0000000000
      8296        73  SLPC      H16R           35.3053607416       15.8191805750        0.8910407102  MEMB      73              0.0000000000
      8297        73  SLPC      H16S           33.5883256897       16.1931549252        1.3244551348  MEMB      73              0.0000000000
      8298        73  SLPC      C217           33.8917758638       15.0444483351       -0.4964420359  MEMB      73              0.0000000000
      8299        73  SLPC      H17R           32.8755009195       14.5968623476       -0.5306912811  MEMB      73              0.0000000000
      8300        73  SLPC      H17S           34.6428502219       14.3234037002       -0.8841311181  MEMB      73              0.0000000000
      8301        73  SLPC      C218           33.7792744926       16.2329142207       -1.3929851480  MEMB      73              0.0000000000
      8302        73  SLPC      H18R           32.8413568853       16.8003470001       -1.2122887028  MEMB      73              0.0000000000
      8303        73  SLPC      H18S           33.7669361269       15.8415581878       -2.4327015528  MEMB      73              0.0000000000
      8304        73  SLPC      H18T           34.6250305268       16.9166053880       -1.1658639619  MEMB      73              0.0000000000
      8305        73  SLPC      C33            27.5600568733       16.4061074158       13.2876487938  MEMB      73              0.0000000000
      8306        73  SLPC      H3X            28.2059297061       17.0539892968       12.6572373057  MEMB      73              0.0000000000
      8307        73  SLPC      H3Y            27.5675174261       16.7842800682       14.3322781652  MEMB      73              0.0000000000
      8308        73  SLPC      C34            26.1555750040       16.5079257013       12.7355054647  MEMB      73              0.0000000000
      8309        73  SLPC      H4X            25.5128504846       16.0132540670       13.4947988913  MEMB      73              0.0000000000
      8310        73  SLPC      H4Y            26.1167321449       16.0708493901       11.7148309062  MEMB      73              0.0000000000
      8311        73  SLPC      C35            25.5913605908       17.9049579238       12.4394483839  MEMB      73              0.0000000000
      8312        73  SLPC      H5X            25.9421737178       18.5104393136       13.3023755090  MEMB      73              0.0000000000
      8313        73  SLPC      H5Y            24.4880598812       17.7969129694       12.3661326944  MEMB      73              0.0000000000
      8314        73  SLPC      C36            26.2016735501       18.6583080490       11.3087104638  MEMB      73              0.0000000000
      8315        73  SLPC      H6X            26.2114676101       17.9875794432       10.4230761353  MEMB      73              0.0000000000
      8316        73  SLPC      H6Y            27.2621301633       18.9178271339       11.5146304542  MEMB      73              0.0000000000
      8317        73  SLPC      C37            25.5571095594       19.8831116542       10.9381264167  MEMB      73              0.0000000000
      8318        73  SLPC      H7X            25.5591838362       20.7163877813       11.6729508782  MEMB      73              0.0000000000
      8319        73  SLPC      H7Y            24.4943651185       19.5946865285       10.7907979081  MEMB      73              0.0000000000
      8320        73  SLPC      C38            26.0311417813       20.5452480537        9.6769183546  MEMB      73              0.0000000000
      8321        73  SLPC      H8X            25.3664779251       21.3742310680        9.3523717484  MEMB      73              0.0000000000
      8322        73  SLPC      H8Y            26.0616947201       19.8749295180        8.7914467848  MEMB      73              0.0000000000
      8323        73  SLPC      C39            27.4677766438       21.0621037313        9.8807592869  MEMB      73              0.0000000000
      8324        73  SLPC      H9X            27.9674529822       20.3481817964       10.5699327650  MEMB      73              0.0000000000
      8325        73  SLPC      H9Y            27.4766321975       22.0975042105       10.2834848698  MEMB      73              0.0000000000
      8326        73  SLPC      C310           28.2323620242       21.1929560476        8.5300152438  MEMB      73              0.0000000000
      8327        73  SLPC      H10X           27.6531530100       21.9527433947        7.9629515667  MEMB      73              0.0000000000
      8328        73  SLPC      H10Y           28.3344277442       20.2417825148        7.9650616340  MEMB      73              0.0000000000
      8329        73  SLPC      C311           29.6189008222       21.8499541207        8.6861792528  MEMB      73              0.0000000000
      8330        73  SLPC      H11X           30.0183137584       21.3078958710        9.5699004830  MEMB      73              0.0000000000
      8331        73  SLPC      H11Y           29.6822261509       22.9277023778        8.9484191994  MEMB      73              0.0000000000
      8332        73  SLPC      C312           30.5346760573       21.5746135974        7.5744096791  MEMB      73              0.0000000000
      8333        73  SLPC      H12X           31.4051311132       22.2641677749        7.6082340382  MEMB      73              0.0000000000
      8334        73  SLPC      H12Y           29.9909117671       21.4645219494        6.6118496686  MEMB      73              0.0000000000
      8335        73  SLPC      C313           31.2852890953       20.1526356238        7.6694211184  MEMB      73              0.0000000000
      8336        73  SLPC      H13X           30.5441764207       19.3255677343        7.7015373005  MEMB      73              0.0000000000
      8337        73  SLPC      H13Y           31.7857050526       20.1412386190        8.6612756201  MEMB      73              0.0000000000
      8338        73  SLPC      C314           32.4009557436       19.9642473409        6.5085095490  MEMB      73              0.0000000000
      8339        73  SLPC      H14X           32.9953533355       19.0358554628        6.6467160868  MEMB      73              0.0000000000
      8340        73  SLPC      H14Y           33.0667143955       20.8412393843        6.6567362791  MEMB      73              0.0000000000
      8341        73  SLPC      C315           31.8598863677       19.9245392173        5.0755017436  MEMB      73              0.0000000000
      8342        73  SLPC      H15X           32.7527584800       20.0865727596        4.4345287344  MEMB      73              0.0000000000
      8343        73  SLPC      H15Y           31.1453238708       20.7372361024        4.8240151473  MEMB      73              0.0000000000
      8344        73  SLPC      C316           31.2365304677       18.5726539027        4.8624148249  MEMB      73              0.0000000000
      8345        73  SLPC      H16X           30.2146040593       18.6799059438        5.2848897676  MEMB      73              0.0000000000
      8346        73  SLPC      H16Y           31.8146653321       17.7803683253        5.3843003199  MEMB      73              0.0000000000
      8347        73  SLPC      C317           31.2266189533       18.1344149467        3.4081410163  MEMB      73              0.0000000000
      8348        73  SLPC      H17X           32.2616905485       17.9461422331        3.0510684507  MEMB      73              0.0000000000
      8349        73  SLPC      H17Y           30.6934056090       18.9137434720        2.8227768510  MEMB      73              0.0000000000
      8350        73  SLPC      C318           30.4809297438       16.8155733643        3.1966742037  MEMB      73              0.0000000000
      8351        73  SLPC      H18X           29.3874303915       16.9010128863        3.3735374358  MEMB      73              0.0000000000
      8352        73  SLPC      H18Y           30.8614889365       16.1270037069        3.9811280732  MEMB      73              0.0000000000
      8353        73  SLPC      H18Z           30.8177469450       16.3387678929        2.2514063041  MEMB      73              0.0000000000
      8354        74  OSM       N             -16.3412545675      -33.2595163056       22.5340618628  MEMB      74              0.0000000000
      8355        74  OSM       C15           -17.3778651448      -32.6047738759       21.6778866473  MEMB      74              0.0000000000
      8356        74  OSM       H15A          -17.4300213086      -31.5463517678       21.8862665216  MEMB      74              0.0000000000
      8357        74  OSM       H15B          -18.3527502588      -33.0637705698       21.7508314544  MEMB      74              0.0000000000
      8358        74  OSM       H15C          -17.0949157726      -32.7099877495       20.6409344621  MEMB      74              0.0000000000
      8359        74  OSM       C14           -16.7484887390      -32.9482081177       23.9410306709  MEMB      74              0.0000000000
      8360        74  OSM       H14A          -16.8739613696      -31.8976609785       24.1578422832  MEMB      74              0.0000000000
      8361        74  OSM       H14B          -15.9388901203      -33.2273013077       24.5991014363  MEMB      74              0.0000000000
      8362        74  OSM       H14C          -17.6675509355      -33.4721043704       24.1584182766  MEMB      74              0.0000000000
      8363        74  OSM       C13           -16.4087530422      -34.7212134316       22.1918124518  MEMB      74              0.0000000000
      8364        74  OSM       H13A          -16.4949347917      -34.8744205498       21.1262138767  MEMB      74              0.0000000000
      8365        74  OSM       H13B          -17.2120997433      -35.2272675018       22.7065390581  MEMB      74              0.0000000000
      8366        74  OSM       H13C          -15.4605936740      -35.1343346513       22.5028182871  MEMB      74              0.0000000000
      8367        74  OSM       C12           -15.0153791755      -32.6070314932       22.1686247466  MEMB      74              0.0000000000
      8368        74  OSM       H12A          -14.2941136200      -33.0143062022       22.8616639700  MEMB      74              0.0000000000
      8369        74  OSM       H12B          -15.1660409255      -31.5548043587       22.3597240267  MEMB      74              0.0000000000
      8370        74  OSM       C11           -14.3696889165      -32.8576696897       20.7241994418  MEMB      74              0.0000000000
      8371        74  OSM       H11A          -13.4717514114      -32.2039201262       20.6988882339  MEMB      74              0.0000000000
      8372        74  OSM       H11B          -15.1000459617      -32.5238213957       19.9564463448  MEMB      74              0.0000000000
      8373        74  OSM       P             -13.0343255025      -34.8353616054       19.5344711445  MEMB      74              0.0000000000
      8374        74  OSM       O13           -11.6704372375      -34.4052284263       20.0356348603  MEMB      74              0.0000000000
      8375        74  OSM       O14           -13.3086023924      -36.2539239882       19.3575424639  MEMB      74              0.0000000000
      8376        74  OSM       O11           -13.4284484323      -33.9220952560       18.2443577851  MEMB      74              0.0000000000
      8377        74  OSM       O12           -14.1134172824      -34.2913855612       20.5903779258  MEMB      74              0.0000000000
      8378        74  OSM       C1S           -14.6017641511      -34.3479628615       17.4958939950  MEMB      74              0.0000000000
      8379        74  OSM       H1S           -15.5072216136      -34.0576381555       18.0705062610  MEMB      74              0.0000000000
      8380        74  OSM       H1T           -14.7841719085      -35.4425600644       17.5497964757  MEMB      74              0.0000000000
      8381        74  OSM       NF            -13.5386917699      -34.2495482125       15.1599976922  MEMB      74              0.0000000000
      8382        74  OSM       HNF           -13.0290971033      -33.5355413145       14.6861663324  MEMB      74              0.0000000000
      8383        74  OSM       C2S           -14.5817358829      -33.7494274208       16.0448509108  MEMB      74              0.0000000000
      8384        74  OSM       H2S           -15.5724503860      -34.0068609515       15.6129555600  MEMB      74              0.0000000000
      8385        74  OSM       C3S           -14.4194252040      -32.2019214320       16.3109874408  MEMB      74              0.0000000000
      8386        74  OSM       H3S           -13.5546601908      -31.9079155368       16.9434926225  MEMB      74              0.0000000000
      8387        74  OSM       O3            -15.5325758820      -31.7402716940       17.2028804151  MEMB      74              0.0000000000
      8388        74  OSM       HO3           -15.8232676772      -32.4254358391       17.8092206281  MEMB      74              0.0000000000
      8389        74  OSM       C4S           -14.4391529044      -31.4449445757       15.0303421365  MEMB      74              0.0000000000
      8390        74  OSM       H4S           -15.3885894277      -31.0949976356       14.5989402785  MEMB      74              0.0000000000
      8391        74  OSM       C5S           -13.2946534224      -31.0107927385       14.4235759465  MEMB      74              0.0000000000
      8392        74  OSM       H5S           -12.3473380324      -31.2256043321       14.9397638098  MEMB      74              0.0000000000
      8393        74  OSM       C6S           -13.1312022779      -30.2215565354       13.1803180255  MEMB      74              0.0000000000
      8394        74  OSM       H6S           -12.1823924359      -30.5255895287       12.6887444475  MEMB      74              0.0000000000
      8395        74  OSM       H6T           -13.1734053989      -29.1292125129       13.3786216693  MEMB      74              0.0000000000
      8396        74  OSM       C7S           -14.2759443556      -30.5307063768       12.0916975367  MEMB      74              0.0000000000
      8397        74  OSM       H7S           -15.2258198844      -30.0639498594       12.4296268868  MEMB      74              0.0000000000
      8398        74  OSM       H7T           -14.4074492388      -31.6149676415       11.8882145827  MEMB      74              0.0000000000
      8399        74  OSM       C8S           -13.8522938725      -29.8690058582       10.7347128446  MEMB      74              0.0000000000
      8400        74  OSM       H8S           -12.9007947413      -30.3604237591       10.4389443350  MEMB      74              0.0000000000
      8401        74  OSM       H8T           -13.6432983617      -28.7782442579       10.7643993284  MEMB      74              0.0000000000
      8402        74  OSM       C9S           -14.9015694801      -30.1786965240        9.6088153985  MEMB      74              0.0000000000
      8403        74  OSM       H9S           -14.5111692119      -30.0865611940        8.5727562913  MEMB      74              0.0000000000
      8404        74  OSM       H9T           -15.6867159021      -29.3943145936        9.5577197325  MEMB      74              0.0000000000
      8405        74  OSM       C10S          -15.5511386877      -31.5663064663        9.5943357214  MEMB      74              0.0000000000
      8406        74  OSM       H10S          -16.3437694444      -31.5016949136        8.8185241120  MEMB      74              0.0000000000
      8407        74  OSM       H10T          -16.2143459086      -31.7382465347       10.4689288160  MEMB      74              0.0000000000
      8408        74  OSM       C11S          -14.5939813676      -32.6868393938        9.3163832036  MEMB      74              0.0000000000
      8409        74  OSM       H11S          -13.8144504804      -32.5300198187       10.0923092505  MEMB      74              0.0000000000
      8410        74  OSM       H11T          -14.0392359437      -32.3534683206        8.4133655312  MEMB      74              0.0000000000
      8411        74  OSM       C12S          -15.1809129261      -34.1093504157        9.1024323195  MEMB      74              0.0000000000
      8412        74  OSM       H12S          -15.7034980005      -34.4599734531       10.0180133765  MEMB      74              0.0000000000
      8413        74  OSM       H12T          -14.2538824460      -34.7176255692        9.0321703725  MEMB      74              0.0000000000
      8414        74  OSM       C13S          -16.2519972355      -34.2805857664        8.0788802738  MEMB      74              0.0000000000
      8415        74  OSM       H13S          -17.0943835218      -33.5647330903        8.1896106572  MEMB      74              0.0000000000
      8416        74  OSM       H13T          -16.6298559986      -35.3173497633        8.2079707111  MEMB      74              0.0000000000
      8417        74  OSM       C14S          -15.6333871921      -34.0517558312        6.6734788017  MEMB      74              0.0000000000
      8418        74  OSM       H14S          -14.5884406973      -34.4291061425        6.6773212862  MEMB      74              0.0000000000
      8419        74  OSM       H14T          -15.4258911880      -32.9868046139        6.4344279341  MEMB      74              0.0000000000
      8420        74  OSM       C15S          -16.4002428590      -34.8370571203        5.5146454123  MEMB      74              0.0000000000
      8421        74  OSM       H15S          -17.4624185107      -34.5202674630        5.5904617659  MEMB      74              0.0000000000
      8422        74  OSM       H15T          -16.4575669938      -35.9415746257        5.6198880803  MEMB      74              0.0000000000
      8423        74  OSM       C16S          -15.8969183736      -34.5451607493        4.0478821175  MEMB      74              0.0000000000
      8424        74  OSM       H16S          -14.8240049132      -34.8173550330        3.9525492825  MEMB      74              0.0000000000
      8425        74  OSM       H16T          -15.8290707939      -33.4502961188        3.8718440813  MEMB      74              0.0000000000
      8426        74  OSM       C17S          -16.7738660290      -35.0970831325        2.8758989765  MEMB      74              0.0000000000
      8427        74  OSM       H17S          -16.5379762505      -34.7335690273        1.8528960518  MEMB      74              0.0000000000
      8428        74  OSM       H17T          -17.8338726195      -34.8865562664        3.1335543048  MEMB      74              0.0000000000
      8429        74  OSM       C18S          -16.6252223736      -36.6071986920        2.6998326050  MEMB      74              0.0000000000
      8430        74  OSM       H18S          -17.1908910938      -36.8366151169        1.7715501555  MEMB      74              0.0000000000
      8431        74  OSM       H18T          -17.0218141271      -37.1811829625        3.5644584079  MEMB      74              0.0000000000
      8432        74  OSM       H18U          -15.5435962066      -36.8491790653        2.6233417720  MEMB      74              0.0000000000
      8433        74  OSM       C1F           -13.6638706951      -35.5008485827       14.7520957059  MEMB      74              0.0000000000
      8434        74  OSM       OF            -14.5088386276      -36.2700253281       15.2743438799  MEMB      74              0.0000000000
      8435        74  OSM       C2F           -12.7680376299      -35.8114989086       13.6332375635  MEMB      74              0.0000000000
      8436        74  OSM       H2F           -11.8134598424      -35.2845392561       13.8463475272  MEMB      74              0.0000000000
      8437        74  OSM       H2G           -13.2016845285      -35.3556364634       12.7175629189  MEMB      74              0.0000000000
      8438        74  OSM       C3F           -12.2385660623      -37.2839993557       13.4817291276  MEMB      74              0.0000000000
      8439        74  OSM       H3F           -13.1688252658      -37.8647844568       13.3038886679  MEMB      74              0.0000000000
      8440        74  OSM       H3G           -11.6508008564      -37.5828061213       14.3759143643  MEMB      74              0.0000000000
      8441        74  OSM       C4F           -11.2637349493      -37.5300369005       12.2680759215  MEMB      74              0.0000000000
      8442        74  OSM       H4F           -11.0192712073      -38.6086775547       12.1627529682  MEMB      74              0.0000000000
      8443        74  OSM       H4G           -10.2742987039      -37.0814927244       12.5007664874  MEMB      74              0.0000000000
      8444        74  OSM       C5F           -11.7192230614      -36.9827782984       10.8710893178  MEMB      74              0.0000000000
      8445        74  OSM       H5F           -11.4350682891      -35.9100944366       10.8169940311  MEMB      74              0.0000000000
      8446        74  OSM       H5G           -12.8251964929      -37.0561575173       10.7951991615  MEMB      74              0.0000000000
      8447        74  OSM       C6F           -10.9743246693      -37.6323407232        9.7423306993  MEMB      74              0.0000000000
      8448        74  OSM       H6F           -11.1161187412      -38.7307475331        9.8301836206  MEMB      74              0.0000000000
      8449        74  OSM       H6G            -9.8827559598      -37.4442235940        9.8284159441  MEMB      74              0.0000000000
      8450        74  OSM       C7F           -11.5167332164      -37.1093033437        8.3933258111  MEMB      74              0.0000000000
      8451        74  OSM       H7F           -10.7420365730      -37.0910508711        7.5971894842  MEMB      74              0.0000000000
      8452        74  OSM       H7G           -11.8645283364      -36.1016395909        8.7063336327  MEMB      74              0.0000000000
      8453        74  OSM       C8F           -12.7150909156      -37.8895922219        7.8419749894  MEMB      74              0.0000000000
      8454        74  OSM       H8F           -13.3852724493      -38.0692407607        8.7096755822  MEMB      74              0.0000000000
      8455        74  OSM       H8G           -12.4219534084      -38.8673125332        7.4032792549  MEMB      74              0.0000000000
      8456        74  OSM       C9F           -13.4116280987      -37.1425023689        6.7886419167  MEMB      74              0.0000000000
      8457        74  OSM       H9F           -13.8928624713      -36.2133221255        7.1278135104  MEMB      74              0.0000000000
      8458        74  OSM       C10F          -13.3464845951      -37.3638154821        5.4503347879  MEMB      74              0.0000000000
      8459        74  OSM       H10F          -13.8991475859      -36.6323803532        4.8424161438  MEMB      74              0.0000000000
      8460        74  OSM       C11F          -12.5672885078      -38.4087200337        4.7547263365  MEMB      74              0.0000000000
      8461        74  OSM       H11F          -13.2442102995      -39.2850834369        4.6648092571  MEMB      74              0.0000000000
      8462        74  OSM       H11G          -11.7687186275      -38.7285092822        5.4578206490  MEMB      74              0.0000000000
      8463        74  OSM       C12F          -11.9956328404      -38.0995071093        3.3364106184  MEMB      74              0.0000000000
      8464        74  OSM       H12F          -12.7378587817      -37.5144075673        2.7523903574  MEMB      74              0.0000000000
      8465        74  OSM       H12G          -11.7451078264      -39.0057956577        2.7446364069  MEMB      74              0.0000000000
      8466        74  OSM       C13F          -10.7174517673      -37.1843963814        3.5079521224  MEMB      74              0.0000000000
      8467        74  OSM       H13F           -9.8669491403      -37.8832349614        3.6582566461  MEMB      74              0.0000000000
      8468        74  OSM       H13G          -10.8201653169      -36.4777206602        4.3590588257  MEMB      74              0.0000000000
      8469        74  OSM       C14F          -10.5018661351      -36.3985088402        2.2043442055  MEMB      74              0.0000000000
      8470        74  OSM       H14F          -10.7419386932      -37.0239029121        1.3180211881  MEMB      74              0.0000000000
      8471        74  OSM       H14G           -9.4397753050      -36.0854796615        2.1132576419  MEMB      74              0.0000000000
      8472        74  OSM       C15F          -11.3691676027      -35.1989507332        2.1749273447  MEMB      74              0.0000000000
      8473        74  OSM       H15F          -11.0358983865      -34.4018756572        2.8734420973  MEMB      74              0.0000000000
      8474        74  OSM       H15G          -12.4234533768      -35.3983286777        2.4631127075  MEMB      74              0.0000000000
      8475        74  OSM       C16F          -11.4265789190      -34.6139848621        0.7064327304  MEMB      74              0.0000000000
      8476        74  OSM       H16F          -11.8811229599      -35.4655813669        0.1564380015  MEMB      74              0.0000000000
      8477        74  OSM       H16G          -10.3836691346      -34.3867188844        0.3981948461  MEMB      74              0.0000000000
      8478        74  OSM       C17F          -12.2177378197      -33.3670556384        0.6134312625  MEMB      74              0.0000000000
      8479        74  OSM       H17F          -12.1279359015      -32.9305396801       -0.4042677633  MEMB      74              0.0000000000
      8480        74  OSM       H17G          -11.8312218700      -32.7780323166        1.4724874145  MEMB      74              0.0000000000
      8481        74  OSM       C18F          -13.7110404510      -33.5214392590        0.8873148728  MEMB      74              0.0000000000
      8482        74  OSM       H18F          -13.8868136267      -33.7269291606        1.9649040407  MEMB      74              0.0000000000
      8483        74  OSM       H18G          -14.0583992732      -34.4552043826        0.3956390979  MEMB      74              0.0000000000
      8484        74  OSM       H18H          -14.2820052481      -32.6433253705        0.5168615906  MEMB      74              0.0000000000
      8485        75  CHL1      C3              6.1503565158       36.3188943385       17.2904550000  MEMB      75              0.0000000000
      8486        75  CHL1      H3              5.8014080088       35.3789570217       16.8118250000  MEMB      75              0.0000000000
      8487        75  CHL1      O3              6.1015436242       36.1960874615       18.7095450000  MEMB      75              0.0000000000
      8488        75  CHL1      H3'             5.2313079697       35.8534288694       18.9260250000  MEMB      75              0.0000000000
      8489        75  CHL1      C4              7.6269925756       36.5188672986       16.8900550000  MEMB      75              0.0000000000
      8490        75  CHL1      H4A             8.0456209714       37.3366341854       17.5148150000  MEMB      75              0.0000000000
      8491        75  CHL1      H4B             8.1332982746       35.6238424266       17.3106350000  MEMB      75              0.0000000000
      8492        75  CHL1      C5              7.6567469560       36.7636343541       15.3791850000  MEMB      75              0.0000000000
      8493        75  CHL1      C6              8.4750717384       35.9703082177       14.6309350000  MEMB      75              0.0000000000
      8494        75  CHL1      H6              8.9663790288       35.2032714647       15.2475950000  MEMB      75              0.0000000000
      8495        75  CHL1      C7              8.8026947179       36.1447480623       13.1193150000  MEMB      75              0.0000000000
      8496        75  CHL1      H7A             9.9034853759       36.2149136480       12.9863950000  MEMB      75              0.0000000000
      8497        75  CHL1      H7B             8.4543916035       35.2919737879       12.4981950000  MEMB      75              0.0000000000
      8498        75  CHL1      C8              8.1705822702       37.4939996413       12.6296150000  MEMB      75              0.0000000000
      8499        75  CHL1      H8              8.8069543128       38.3740824331       12.8636950000  MEMB      75              0.0000000000
      8500        75  CHL1      C14             8.0666563407       37.4565105072       11.0905150000  MEMB      75              0.0000000000
      8501        75  CHL1      H14             7.2994154092       36.6873369383       10.8581050000  MEMB      75              0.0000000000
      8502        75  CHL1      C15             9.3308540240       36.9984285539       10.3861750000  MEMB      75              0.0000000000
      8503        75  CHL1      H15A           10.3225649268       37.2647107194       10.8103450000  MEMB      75              0.0000000000
      8504        75  CHL1      H15B            9.3056656193       35.8944422899       10.2641150000  MEMB      75              0.0000000000
      8505        75  CHL1      C16             9.1751880921       37.6770446734        8.9690050000  MEMB      75              0.0000000000
      8506        75  CHL1      H16A           10.0989870245       38.2902227541        8.8987450000  MEMB      75              0.0000000000
      8507        75  CHL1      H16B            9.2299944229       36.9285994349        8.1497750000  MEMB      75              0.0000000000
      8508        75  CHL1      C17             7.8715649155       38.4733154691        8.9721350000  MEMB      75              0.0000000000
      8509        75  CHL1      H17             6.9885259494       37.8572758238        8.6981450000  MEMB      75              0.0000000000
      8510        75  CHL1      C13             7.6431372770       38.8311659825       10.4694050000  MEMB      75              0.0000000000
      8511        75  CHL1      C18             8.6236151350       39.9814413871       10.7895150000  MEMB      75              0.0000000000
      8512        75  CHL1      H18A            8.6065701075       40.1478959741       11.8878450000  MEMB      75              0.0000000000
      8513        75  CHL1      H18B            9.6154660880       39.6503091333       10.4141350000  MEMB      75              0.0000000000
      8514        75  CHL1      H18C            8.3339960205       40.8552790983       10.1675350000  MEMB      75              0.0000000000
      8515        75  CHL1      C12             6.1643646634       39.0717473368       10.9480250000  MEMB      75              0.0000000000
      8516        75  CHL1      H12A            5.7966205380       40.0585331511       10.5939650000  MEMB      75              0.0000000000
      8517        75  CHL1      H12B            5.5538415966       38.2620672477       10.4941450000  MEMB      75              0.0000000000
      8518        75  CHL1      C11             6.1146213290       39.0336552289       12.5225150000  MEMB      75              0.0000000000
      8519        75  CHL1      H11A            6.5799571157       39.9456458390       12.9538650000  MEMB      75              0.0000000000
      8520        75  CHL1      H11B            5.0655295784       38.9768513601       12.8837650000  MEMB      75              0.0000000000
      8521        75  CHL1      C9              6.8183099210       37.8041989610       13.2088350000  MEMB      75              0.0000000000
      8522        75  CHL1      H9              6.1763894949       36.9535850739       12.8946150000  MEMB      75              0.0000000000
      8523        75  CHL1      C10             6.8019174302       37.8744021735       14.7667150000  MEMB      75              0.0000000000
      8524        75  CHL1      C19             7.2896122712       39.3136334735       15.2785350000  MEMB      75              0.0000000000
      8525        75  CHL1      H19A            7.3440900869       39.3341816827       16.3880050000  MEMB      75              0.0000000000
      8526        75  CHL1      H19B            8.2835505929       39.5116193704       14.8233350000  MEMB      75              0.0000000000
      8527        75  CHL1      H19C            6.5280457654       40.0845648103       15.0335650000  MEMB      75              0.0000000000
      8528        75  CHL1      C1              5.3765124121       37.6280643433       15.3704850000  MEMB      75              0.0000000000
      8529        75  CHL1      H1A             4.8234084451       38.5662917259       15.1511450000  MEMB      75              0.0000000000
      8530        75  CHL1      H1B             4.9735429745       36.7386154168       14.8405750000  MEMB      75              0.0000000000
      8531        75  CHL1      C2              5.2117930518       37.5064862518       16.8891650000  MEMB      75              0.0000000000
      8532        75  CHL1      H2A             4.1878538118       37.1834395341       17.1746850000  MEMB      75              0.0000000000
      8533        75  CHL1      H2B             5.4687644636       38.4462671528       17.4231150000  MEMB      75              0.0000000000
      8534        75  CHL1      C20             7.8317687454       39.5527077839        7.8199850000  MEMB      75              0.0000000000
      8535        75  CHL1      H20             8.7905245441       40.1064729097        7.9120150000  MEMB      75              0.0000000000
      8536        75  CHL1      C21             6.6251230709       40.5685707244        7.8936150000  MEMB      75              0.0000000000
      8537        75  CHL1      H21A            5.7242580907       39.9247857566        7.9846450000  MEMB      75              0.0000000000
      8538        75  CHL1      H21B            6.6432889005       41.1140457053        6.9259050000  MEMB      75              0.0000000000
      8539        75  CHL1      H21C            6.5443411797       41.3445745688        8.6845650000  MEMB      75              0.0000000000
      8540        75  CHL1      C22             7.8668627446       38.8867638210        6.4448750000  MEMB      75              0.0000000000
      8541        75  CHL1      H22A            8.4536440326       37.9438358156        6.4748050000  MEMB      75              0.0000000000
      8542        75  CHL1      H22B            6.8309342225       38.6141905628        6.1501250000  MEMB      75              0.0000000000
      8543        75  CHL1      C23             8.4718980538       39.7593007770        5.3223750000  MEMB      75              0.0000000000
      8544        75  CHL1      H23A            7.7710338399       40.6133357319        5.2051150000  MEMB      75              0.0000000000
      8545        75  CHL1      H23B            9.4718318965       40.0915218176        5.6746050000  MEMB      75              0.0000000000
      8546        75  CHL1      C24             8.7013854583       38.9475163329        4.1229650000  MEMB      75              0.0000000000
      8547        75  CHL1      H24A            9.4881942597       38.1996644028        4.3595450000  MEMB      75              0.0000000000
      8548        75  CHL1      H24B            7.8167462543       38.2984284239        3.9485350000  MEMB      75              0.0000000000
      8549        75  CHL1      C25             9.1758129954       39.5982180801        2.7879250000  MEMB      75              0.0000000000
      8550        75  CHL1      H25             8.4107203386       40.3450624565        2.4859550000  MEMB      75              0.0000000000
      8551        75  CHL1      C26            10.4248542494       40.4584795740        2.8931850000  MEMB      75              0.0000000000
      8552        75  CHL1      H26A           10.1668172153       41.3813838797        3.4552950000  MEMB      75              0.0000000000
      8553        75  CHL1      H26B           11.2552475136       39.9112348327        3.3884550000  MEMB      75              0.0000000000
      8554        75  CHL1      H26C           10.8085984395       40.6491676098        1.8681450000  MEMB      75              0.0000000000
      8555        75  CHL1      C27             9.2520476573       38.5630954266        1.6591750000  MEMB      75              0.0000000000
      8556        75  CHL1      H27A            9.6176144792       38.8603585806        0.6530350000  MEMB      75              0.0000000000
      8557        75  CHL1      H27B            9.9450022017       37.7603744428        1.9905050000  MEMB      75              0.0000000000
      8558        75  CHL1      H27C            8.2668857156       38.0866123247        1.4674950000  MEMB      75              0.0000000000
      8559        76  SAPC      N             -17.6842197581       33.7512879821       21.8348309438  MEMB      76              0.0000000000
      8560        76  SAPC      C12           -16.2691234008       33.1895899534       21.5106816552  MEMB      76              0.0000000000
      8561        76  SAPC      H12A          -15.8484160369       32.8665030479       22.4514367504  MEMB      76              0.0000000000
      8562        76  SAPC      H12B          -15.6551904627       33.9322874390       21.0229452435  MEMB      76              0.0000000000
      8563        76  SAPC      C13           -17.5749380764       34.4554359116       23.1472034250  MEMB      76              0.0000000000
      8564        76  SAPC      H13A          -17.1811501638       33.7320200928       23.8457739068  MEMB      76              0.0000000000
      8565        76  SAPC      H13B          -16.8362418006       35.2222909025       22.9664789501  MEMB      76              0.0000000000
      8566        76  SAPC      H13C          -18.4870553871       34.9747104013       23.4017545163  MEMB      76              0.0000000000
      8567        76  SAPC      C14           -18.0951893732       34.7589511689       20.7979109274  MEMB      76              0.0000000000
      8568        76  SAPC      H14A          -19.0399562379       35.2182912461       21.0485543816  MEMB      76              0.0000000000
      8569        76  SAPC      H14B          -17.3593547183       35.5456392337       20.7200065021  MEMB      76              0.0000000000
      8570        76  SAPC      H14C          -18.1209809532       34.2682177894       19.8361855680  MEMB      76              0.0000000000
      8571        76  SAPC      C15           -18.6728898641       32.6336481708       21.8602700781  MEMB      76              0.0000000000
      8572        76  SAPC      H15A          -18.4412018400       31.8232075569       22.5354787051  MEMB      76              0.0000000000
      8573        76  SAPC      H15B          -19.7130718724       32.8746502437       22.0225645114  MEMB      76              0.0000000000
      8574        76  SAPC      H15C          -18.8367753640       32.2548317040       20.8622522232  MEMB      76              0.0000000000
      8575        76  SAPC      C11           -16.2204094210       31.9549538649       20.5710459287  MEMB      76              0.0000000000
      8576        76  SAPC      H11A          -16.6369527181       31.0441288993       21.0518894550  MEMB      76              0.0000000000
      8577        76  SAPC      H11B          -15.1551696595       31.7284333077       20.3513333814  MEMB      76              0.0000000000
      8578        76  SAPC      P             -16.6935948247       31.4371046283       18.0174407456  MEMB      76              0.0000000000
      8579        76  SAPC      O13           -16.5532168529       32.4810592265       16.9626606585  MEMB      76              0.0000000000
      8580        76  SAPC      O14           -15.6508483645       30.4158944112       18.1584554273  MEMB      76              0.0000000000
      8581        76  SAPC      O12           -16.8946576699       32.2153007398       19.3812292438  MEMB      76              0.0000000000
      8582        76  SAPC      O11           -18.1106582221       30.8075664271       17.7582709642  MEMB      76              0.0000000000
      8583        76  SAPC      C1            -18.5922160222       29.9411663704       18.8249092742  MEMB      76              0.0000000000
      8584        76  SAPC      HA            -17.7337167264       29.3745075453       19.2446684855  MEMB      76              0.0000000000
      8585        76  SAPC      HB            -19.0462563496       30.4321414814       19.7121024257  MEMB      76              0.0000000000
      8586        76  SAPC      C2            -19.6004244300       28.9551858617       18.2126773153  MEMB      76              0.0000000000
      8587        76  SAPC      HS            -19.7280658842       28.0843652658       18.8906892845  MEMB      76              0.0000000000
      8588        76  SAPC      O21           -19.3113592488       28.6643608013       16.8559539286  MEMB      76              0.0000000000
      8589        76  SAPC      C21           -18.1959020471       27.9175635370       16.5798579000  MEMB      76              0.0000000000
      8590        76  SAPC      O22           -17.4316162264       27.4920733366       17.4750894965  MEMB      76              0.0000000000
      8591        76  SAPC      C22           -18.1296021475       27.6696634116       15.0596938173  MEMB      76              0.0000000000
      8592        76  SAPC      H2R           -17.5367768687       26.7579173615       14.8325422747  MEMB      76              0.0000000000
      8593        76  SAPC      H2S           -19.1186684999       27.4430450296       14.6072419847  MEMB      76              0.0000000000
      8594        76  SAPC      C3            -21.0004609157       29.5256925582       18.3786365331  MEMB      76              0.0000000000
      8595        76  SAPC      HX            -21.2816894932       29.5458153717       19.4532649599  MEMB      76              0.0000000000
      8596        76  SAPC      HY            -21.8206415701       28.8780323932       18.0015939526  MEMB      76              0.0000000000
      8597        76  SAPC      O31           -21.0105062270       30.8328011761       17.8268222233  MEMB      76              0.0000000000
      8598        76  SAPC      C31           -21.3243047485       30.9082602072       16.5254329779  MEMB      76              0.0000000000
      8599        76  SAPC      O32           -21.7185318934       30.0432025823       15.7478350285  MEMB      76              0.0000000000
      8600        76  SAPC      C32           -21.1532459655       32.4216476076       16.2063509191  MEMB      76              0.0000000000
      8601        76  SAPC      H2X           -20.2141292465       32.8779490457       16.5860476990  MEMB      76              0.0000000000
      8602        76  SAPC      H2Y           -21.9352140072       32.9294226362       16.8105123781  MEMB      76              0.0000000000
      8603        76  SAPC      C23           -17.4681779678       28.9526109724       14.4765921728  MEMB      76              0.0000000000
      8604        76  SAPC      H3R           -16.4057064463       28.9509643312       14.8013571982  MEMB      76              0.0000000000
      8605        76  SAPC      H3S           -17.8852569177       29.9199078935       14.8297247612  MEMB      76              0.0000000000
      8606        76  SAPC      C24           -17.5349771125       29.0750933192       12.8884847639  MEMB      76              0.0000000000
      8607        76  SAPC      H4R           -17.0183231326       28.1140264394       12.6793433188  MEMB      76              0.0000000000
      8608        76  SAPC      H4S           -16.8847133775       29.9443934095       12.6522742488  MEMB      76              0.0000000000
      8609        76  SAPC      C25           -18.8914386289       29.1630089532       12.2801045816  MEMB      76              0.0000000000
      8610        76  SAPC      H5R           -19.7116891049       28.8585219664       12.9467955135  MEMB      76              0.0000000000
      8611        76  SAPC      C26           -19.2551064701       29.5579028337       11.0443592990  MEMB      76              0.0000000000
      8612        76  SAPC      H6R           -20.3137847971       29.4713485871       10.7585117556  MEMB      76              0.0000000000
      8613        76  SAPC      C27           -18.2783346942       30.0531880437       10.0322127904  MEMB      76              0.0000000000
      8614        76  SAPC      H7R           -17.2473094686       29.6706995990       10.1903602158  MEMB      76              0.0000000000
      8615        76  SAPC      H7S           -18.2822255829       31.1628642852       10.0862913537  MEMB      76              0.0000000000
      8616        76  SAPC      C28           -18.7881220473       29.7372409304        8.6218138453  MEMB      76              0.0000000000
      8617        76  SAPC      H8R           -19.5072046688       30.4847721114        8.2555934552  MEMB      76              0.0000000000
      8618        76  SAPC      C29           -18.3890481814       28.8698624001        7.6605763736  MEMB      76              0.0000000000
      8619        76  SAPC      H9R           -19.0023250842       28.8349166279        6.7480682618  MEMB      76              0.0000000000
      8620        76  SAPC      C210          -17.2085347234       27.8859632754        7.7100269797  MEMB      76              0.0000000000
      8621        76  SAPC      H10R          -17.5193939716       26.9501058264        8.2217474396  MEMB      76              0.0000000000
      8622        76  SAPC      H10S          -16.3887316404       28.2259440776        8.3783500416  MEMB      76              0.0000000000
      8623        76  SAPC      C211          -16.7782744166       27.6077411121        6.2758016461  MEMB      76              0.0000000000
      8624        76  SAPC      H11R          -17.1427630599       26.7011120818        5.7706567631  MEMB      76              0.0000000000
      8625        76  SAPC      C212          -15.9592378663       28.2695515345        5.4719737095  MEMB      76              0.0000000000
      8626        76  SAPC      H12R          -15.7997874242       27.9479603214        4.4321882485  MEMB      76              0.0000000000
      8627        76  SAPC      C213          -15.2164498583       29.5359569426        5.8866534771  MEMB      76              0.0000000000
      8628        76  SAPC      H13R          -14.2238291005       29.5018636996        5.3887954514  MEMB      76              0.0000000000
      8629        76  SAPC      H13S          -14.8679001348       29.4549060340        6.9384439137  MEMB      76              0.0000000000
      8630        76  SAPC      C214          -15.8332793639       30.9124031771        5.6013525062  MEMB      76              0.0000000000
      8631        76  SAPC      H14R          -16.8106205742       31.0845144762        6.0758856801  MEMB      76              0.0000000000
      8632        76  SAPC      C215          -15.4429946621       31.8255886257        4.6837861400  MEMB      76              0.0000000000
      8633        76  SAPC      H15R          -16.0320846060       32.7376390160        4.5073293286  MEMB      76              0.0000000000
      8634        76  SAPC      C216          -14.2875997029       31.6743384552        3.7532664162  MEMB      76              0.0000000000
      8635        76  SAPC      H16R          -13.6173256784       30.8567319718        4.0946958321  MEMB      76              0.0000000000
      8636        76  SAPC      H16S          -13.6882242492       32.6087287665        3.7087078445  MEMB      76              0.0000000000
      8637        76  SAPC      C217          -14.7288072101       31.2324073781        2.3227737869  MEMB      76              0.0000000000
      8638        76  SAPC      H17R          -13.8767277283       31.3794644436        1.6251660514  MEMB      76              0.0000000000
      8639        76  SAPC      H17S          -15.6851849933       31.6837647375        1.9822752742  MEMB      76              0.0000000000
      8640        76  SAPC      C218          -15.2084260254       29.6892766221        2.2265149156  MEMB      76              0.0000000000
      8641        76  SAPC      H18R          -16.1369033018       29.5157892213        2.8114537216  MEMB      76              0.0000000000
      8642        76  SAPC      H18S          -14.4403763719       29.0933771313        2.7644044089  MEMB      76              0.0000000000
      8643        76  SAPC      C219          -15.4088464216       29.0189668965        0.8575011646  MEMB      76              0.0000000000
      8644        76  SAPC      H19R          -16.2535858028       29.5434708152        0.3618880704  MEMB      76              0.0000000000
      8645        76  SAPC      H19S          -15.6382253848       27.9327680633        0.9008422612  MEMB      76              0.0000000000
      8646        76  SAPC      C220          -14.2159666742       29.2130536809       -0.0969544399  MEMB      76              0.0000000000
      8647        76  SAPC      H20R          -14.3127974755       28.7103957139       -1.0829971701  MEMB      76              0.0000000000
      8648        76  SAPC      H20S          -13.4222637826       28.7153456745        0.5002424199  MEMB      76              0.0000000000
      8649        76  SAPC      H20T          -13.9573337817       30.2906035728       -0.1764292119  MEMB      76              0.0000000000
      8650        76  SAPC      C33           -21.5123716425       32.7148359845       14.7167974772  MEMB      76              0.0000000000
      8651        76  SAPC      H3X           -21.8337248038       33.7714871297       14.5962085773  MEMB      76              0.0000000000
      8652        76  SAPC      H3Y           -22.3557887991       32.1070932359       14.3248569794  MEMB      76              0.0000000000
      8653        76  SAPC      C34           -20.3132920123       32.6241868502       13.7755596774  MEMB      76              0.0000000000
      8654        76  SAPC      H4X           -20.1236308178       31.5681520890       13.4872190425  MEMB      76              0.0000000000
      8655        76  SAPC      H4Y           -19.4934443169       33.1747568600       14.2845229858  MEMB      76              0.0000000000
      8656        76  SAPC      C35           -20.6465373417       33.3035443968       12.3723816317  MEMB      76              0.0000000000
      8657        76  SAPC      H5X           -19.7310535956       33.2552204200       11.7447867630  MEMB      76              0.0000000000
      8658        76  SAPC      H5Y           -20.8549745983       34.3575548332       12.6551127400  MEMB      76              0.0000000000
      8659        76  SAPC      C36           -21.8442718173       32.6944839743       11.5984327841  MEMB      76              0.0000000000
      8660        76  SAPC      H6X           -22.7946613921       32.6242017223       12.1695208142  MEMB      76              0.0000000000
      8661        76  SAPC      H6Y           -21.7249728175       31.6154249746       11.3623805291  MEMB      76              0.0000000000
      8662        76  SAPC      C37           -22.0836860530       33.3998122346       10.2207507209  MEMB      76              0.0000000000
      8663        76  SAPC      H7X           -22.3757056250       34.4510004173       10.4306290302  MEMB      76              0.0000000000
      8664        76  SAPC      H7Y           -23.0293291881       33.0155008571        9.7821348844  MEMB      76              0.0000000000
      8665        76  SAPC      C38           -20.9548401946       33.1634722688        9.1440209090  MEMB      76              0.0000000000
      8666        76  SAPC      H8X           -20.8859318929       32.0708699807        8.9548318610  MEMB      76              0.0000000000
      8667        76  SAPC      H8Y           -19.9717447705       33.5815134059        9.4491206705  MEMB      76              0.0000000000
      8668        76  SAPC      C39           -21.3957404448       33.9033120988        7.7722700687  MEMB      76              0.0000000000
      8669        76  SAPC      H9X           -21.7613031631       34.9258364355        8.0070637281  MEMB      76              0.0000000000
      8670        76  SAPC      H9Y           -22.3239961520       33.4184869484        7.4013150289  MEMB      76              0.0000000000
      8671        76  SAPC      C310          -20.3021130523       33.9351831797        6.7781492225  MEMB      76              0.0000000000
      8672        76  SAPC      H10X          -19.3611562536       34.4789953180        7.0087772514  MEMB      76              0.0000000000
      8673        76  SAPC      H10Y          -20.7994099187       34.6854926536        6.1269556575  MEMB      76              0.0000000000
      8674        76  SAPC      C311          -20.0152271214       32.5717257073        6.0309992164  MEMB      76              0.0000000000
      8675        76  SAPC      H11X          -20.8575199692       31.8598596185        6.1655745972  MEMB      76              0.0000000000
      8676        76  SAPC      H11Y          -19.1273483398       32.1095937776        6.5131054106  MEMB      76              0.0000000000
      8677        76  SAPC      C312          -19.8667057346       32.6477006611        4.5025049027  MEMB      76              0.0000000000
      8678        76  SAPC      H12X          -18.9056843353       33.1617955440        4.2869466446  MEMB      76              0.0000000000
      8679        76  SAPC      H12Y          -20.7177036585       33.1755274717        4.0213378562  MEMB      76              0.0000000000
      8680        76  SAPC      C313          -19.6405819996       31.2533909295        3.8238930420  MEMB      76              0.0000000000
      8681        76  SAPC      H13X          -20.4140536246       30.5246334138        4.1478917749  MEMB      76              0.0000000000
      8682        76  SAPC      H13Y          -18.6763659294       30.8275796272        4.1750248410  MEMB      76              0.0000000000
      8683        76  SAPC      C314          -19.5281806685       31.2598802323        2.2603086411  MEMB      76              0.0000000000
      8684        76  SAPC      H14X          -18.4936195335       31.5900492671        2.0258030816  MEMB      76              0.0000000000
      8685        76  SAPC      H14Y          -20.2722068427       31.9263164728        1.7738847588  MEMB      76              0.0000000000
      8686        76  SAPC      C315          -19.7505817821       29.8160736279        1.8459397274  MEMB      76              0.0000000000
      8687        76  SAPC      H15X          -20.8007204279       29.5203744916        2.0559205991  MEMB      76              0.0000000000
      8688        76  SAPC      H15Y          -19.1283434161       29.1631832495        2.4946878679  MEMB      76              0.0000000000
      8689        76  SAPC      C316          -19.3188741791       29.5859624628        0.3666902114  MEMB      76              0.0000000000
      8690        76  SAPC      H16X          -18.2453190123       29.8634555617        0.2974227549  MEMB      76              0.0000000000
      8691        76  SAPC      H16Y          -19.9036985015       30.3149788604       -0.2340069657  MEMB      76              0.0000000000
      8692        76  SAPC      C317          -19.3658465794       28.0810603830       -0.0352661040  MEMB      76              0.0000000000
      8693        76  SAPC      H17X          -18.9038310364       27.5169519797        0.8029724202  MEMB      76              0.0000000000
      8694        76  SAPC      H17Y          -18.7491364689       27.9219324455       -0.9455775563  MEMB      76              0.0000000000
      8695        76  SAPC      C318          -20.7008225302       27.5040034726       -0.3283532268  MEMB      76              0.0000000000
      8696        76  SAPC      H18X          -21.1208266873       28.1045896167       -1.1633465686  MEMB      76              0.0000000000
      8697        76  SAPC      H18Y          -21.4579471072       27.5612201354        0.4827009694  MEMB      76              0.0000000000
      8698        76  SAPC      H18Z          -20.6093817511       26.4383904582       -0.6290679408  MEMB      76              0.0000000000
      8699        77  OSM       N             -27.5276624740       22.5365311220       22.1810291226  MEMB      77              0.0000000000
      8700        77  OSM       C15           -26.6085140361       22.6313128429       21.0203238817  MEMB      77              0.0000000000
      8701        77  OSM       H15A          -25.6496515306       22.4694457420       21.4901981372  MEMB      77              0.0000000000
      8702        77  OSM       H15B          -26.5610731082       23.6337291996       20.6211862992  MEMB      77              0.0000000000
      8703        77  OSM       H15C          -26.8015900756       21.8399572890       20.3111848155  MEMB      77              0.0000000000
      8704        77  OSM       C14           -27.4478929750       21.1089055612       22.7013398902  MEMB      77              0.0000000000
      8705        77  OSM       H14A          -27.9882031726       21.0777535055       23.6359492285  MEMB      77              0.0000000000
      8706        77  OSM       H14B          -26.4172227486       20.8254603341       22.8555405864  MEMB      77              0.0000000000
      8707        77  OSM       H14C          -27.9384948065       20.4661209494       21.9854227586  MEMB      77              0.0000000000
      8708        77  OSM       C13           -27.0331644766       23.4417117100       23.2997532870  MEMB      77              0.0000000000
      8709        77  OSM       H13A          -26.1196312127       23.0102636570       23.6814724675  MEMB      77              0.0000000000
      8710        77  OSM       H13B          -27.8452567645       23.4549946880       24.0116028652  MEMB      77              0.0000000000
      8711        77  OSM       H13C          -26.9540463424       24.4472343917       22.9136644877  MEMB      77              0.0000000000
      8712        77  OSM       C12           -28.9312120007       22.8879024830       21.8117928181  MEMB      77              0.0000000000
      8713        77  OSM       H12A          -29.6004266431       22.6058805938       22.6111772325  MEMB      77              0.0000000000
      8714        77  OSM       H12B          -29.2420585711       22.2861325499       20.9705751594  MEMB      77              0.0000000000
      8715        77  OSM       C11           -29.3510905121       24.3042056071       21.3921890599  MEMB      77              0.0000000000
      8716        77  OSM       H11A          -28.9843609259       24.9897418947       22.1858328868  MEMB      77              0.0000000000
      8717        77  OSM       H11B          -30.4563139820       24.4134098626       21.3625855313  MEMB      77              0.0000000000
      8718        77  OSM       P             -28.2660706732       26.0367729293       19.7387421437  MEMB      77              0.0000000000
      8719        77  OSM       O13           -28.6764146381       26.9503900148       20.7716426188  MEMB      77              0.0000000000
      8720        77  OSM       O14           -26.8341046662       25.8366889840       19.5689748416  MEMB      77              0.0000000000
      8721        77  OSM       O11           -29.0358109466       26.3722023879       18.3779593907  MEMB      77              0.0000000000
      8722        77  OSM       O12           -28.8857586186       24.7161237779       20.1362529402  MEMB      77              0.0000000000
      8723        77  OSM       C1S           -29.2844660012       25.4244775097       17.4272190022  MEMB      77              0.0000000000
      8724        77  OSM       H1S           -30.2928129171       25.0108500066       17.6427872713  MEMB      77              0.0000000000
      8725        77  OSM       H1T           -28.4475195232       24.6959619252       17.3714823029  MEMB      77              0.0000000000
      8726        77  OSM       NF            -28.0359829641       26.2956715361       15.3752466600  MEMB      77              0.0000000000
      8727        77  OSM       HNF           -27.9209768485       27.2777995809       15.5025530356  MEMB      77              0.0000000000
      8728        77  OSM       C2S           -29.3766025074       25.9559679350       15.9267884785  MEMB      77              0.0000000000
      8729        77  OSM       H2S           -29.7014023229       25.1552888453       15.2284053613  MEMB      77              0.0000000000
      8730        77  OSM       C3S           -30.2946573102       27.2056442067       15.9130501585  MEMB      77              0.0000000000
      8731        77  OSM       H3S           -29.8182969924       27.9585446730       16.5767841982  MEMB      77              0.0000000000
      8732        77  OSM       O3            -31.5350977507       26.8623517753       16.4352121945  MEMB      77              0.0000000000
      8733        77  OSM       HO3           -31.4862564782       25.9094166332       16.3297170076  MEMB      77              0.0000000000
      8734        77  OSM       C4S           -30.4452202400       27.7666850581       14.5178398359  MEMB      77              0.0000000000
      8735        77  OSM       H4S           -29.8550226326       28.6639067819       14.2798067735  MEMB      77              0.0000000000
      8736        77  OSM       C5S           -31.2587471516       27.2472210223       13.5850833179  MEMB      77              0.0000000000
      8737        77  OSM       H5S           -31.7795314059       26.3293958479       13.8955358143  MEMB      77              0.0000000000
      8738        77  OSM       C6S           -31.3882679305       27.8960514191       12.1791077472  MEMB      77              0.0000000000
      8739        77  OSM       H6S           -30.9005463570       28.8941418237       12.1628419918  MEMB      77              0.0000000000
      8740        77  OSM       H6T           -32.4217162499       27.9522361815       11.7751897814  MEMB      77              0.0000000000
      8741        77  OSM       C7S           -30.5801690924       27.1609097638       11.0924476842  MEMB      77              0.0000000000
      8742        77  OSM       H7S           -31.0356564320       26.1867369975       10.8134501692  MEMB      77              0.0000000000
      8743        77  OSM       H7T           -29.6051626690       26.8693536764       11.5381818289  MEMB      77              0.0000000000
      8744        77  OSM       C8S           -30.2623372915       27.9623201767        9.7294299582  MEMB      77              0.0000000000
      8745        77  OSM       H8S           -29.4110813575       28.6515855214        9.9154351425  MEMB      77              0.0000000000
      8746        77  OSM       H8T           -31.1537993045       28.6168061252        9.6232967569  MEMB      77              0.0000000000
      8747        77  OSM       C9S           -30.1637073390       27.1331169241        8.4331334211  MEMB      77              0.0000000000
      8748        77  OSM       H9S           -31.1402418596       26.6108152329        8.3442374409  MEMB      77              0.0000000000
      8749        77  OSM       H9T           -29.2315339656       26.5295859213        8.4666633588  MEMB      77              0.0000000000
      8750        77  OSM       C10S          -30.1134117290       28.1095021781        7.2740651683  MEMB      77              0.0000000000
      8751        77  OSM       H10S          -29.4134921613       28.8975946490        7.6252682319  MEMB      77              0.0000000000
      8752        77  OSM       H10T          -31.1239636702       28.4971235808        7.0233561669  MEMB      77              0.0000000000
      8753        77  OSM       C11S          -29.5351153641       27.6297905723        6.0038342747  MEMB      77              0.0000000000
      8754        77  OSM       H11S          -29.8936126695       28.3256020470        5.2153884401  MEMB      77              0.0000000000
      8755        77  OSM       H11T          -29.8038927705       26.6003090825        5.6840722981  MEMB      77              0.0000000000
      8756        77  OSM       C12S          -28.0118302875       27.7074862340        6.0162916098  MEMB      77              0.0000000000
      8757        77  OSM       H12S          -27.5806670814       26.8611631890        6.5926219681  MEMB      77              0.0000000000
      8758        77  OSM       H12T          -27.6241277000       28.6293572566        6.5001941266  MEMB      77              0.0000000000
      8759        77  OSM       C13S          -27.4586175249       27.7932525286        4.6554875703  MEMB      77              0.0000000000
      8760        77  OSM       H13S          -26.3499936380       27.8158650252        4.5864794372  MEMB      77              0.0000000000
      8761        77  OSM       H13T          -27.7233993394       28.7947146030        4.2538844907  MEMB      77              0.0000000000
      8762        77  OSM       C14S          -28.0405787872       26.8152639292        3.6245550992  MEMB      77              0.0000000000
      8763        77  OSM       H14S          -29.1317212659       26.9245791441        3.4462873667  MEMB      77              0.0000000000
      8764        77  OSM       H14T          -27.8586764630       25.7672777032        3.9454242434  MEMB      77              0.0000000000
      8765        77  OSM       C15S          -27.2643830082       26.9129361178        2.3186961642  MEMB      77              0.0000000000
      8766        77  OSM       H15S          -26.2048031982       26.6449736266        2.5182141581  MEMB      77              0.0000000000
      8767        77  OSM       H15T          -27.3389016643       27.9235158125        1.8631775018  MEMB      77              0.0000000000
      8768        77  OSM       C16S          -27.8290422231       26.0104437987        1.2208304442  MEMB      77              0.0000000000
      8769        77  OSM       H16S          -27.8025275636       24.9718163800        1.6143651868  MEMB      77              0.0000000000
      8770        77  OSM       H16T          -27.0954646672       25.9513093933        0.3885499784  MEMB      77              0.0000000000
      8771        77  OSM       C17S          -29.2955814864       26.2984618843        0.7692356660  MEMB      77              0.0000000000
      8772        77  OSM       H17S          -29.4039411996       27.4013100508        0.6898320265  MEMB      77              0.0000000000
      8773        77  OSM       H17T          -29.8581615932       25.8692651216        1.6257499875  MEMB      77              0.0000000000
      8774        77  OSM       C18S          -29.7090706212       25.7680381620       -0.6474200530  MEMB      77              0.0000000000
      8775        77  OSM       H18S          -30.8084016240       25.6271907261       -0.7245885608  MEMB      77              0.0000000000
      8776        77  OSM       H18T          -29.2213411427       24.7716048763       -0.7071008358  MEMB      77              0.0000000000
      8777        77  OSM       H18U          -29.4526352737       26.4496480099       -1.4864493693  MEMB      77              0.0000000000
      8778        77  OSM       C1F           -27.0211803202       25.4763683445       15.1358349123  MEMB      77              0.0000000000
      8779        77  OSM       OF            -27.1732876661       24.2710551075       14.9452034214  MEMB      77              0.0000000000
      8780        77  OSM       C2F           -25.6182306033       26.0363490705       15.2758729516  MEMB      77              0.0000000000
      8781        77  OSM       H2F           -25.1298220581       25.6685881102       16.2035202828  MEMB      77              0.0000000000
      8782        77  OSM       H2G           -25.6438723695       27.1468796429       15.2954969883  MEMB      77              0.0000000000
      8783        77  OSM       C3F           -24.7793219445       25.5542611813       14.0198364273  MEMB      77              0.0000000000
      8784        77  OSM       H3F           -24.6033098334       24.4573684160       14.0069142766  MEMB      77              0.0000000000
      8785        77  OSM       H3G           -23.7663052067       25.9572093967       14.2337308238  MEMB      77              0.0000000000
      8786        77  OSM       C4F           -25.3541865116       26.0214498777       12.6371685579  MEMB      77              0.0000000000
      8787        77  OSM       H4F           -24.9770000235       27.0596904674       12.5183902793  MEMB      77              0.0000000000
      8788        77  OSM       H4G           -26.4594460426       26.0674214863       12.7401675717  MEMB      77              0.0000000000
      8789        77  OSM       C5F           -24.9653841127       25.1035880254       11.4840035813  MEMB      77              0.0000000000
      8790        77  OSM       H5F           -25.3866739326       24.1513535715       11.8714125072  MEMB      77              0.0000000000
      8791        77  OSM       H5G           -23.8618967028       25.0384484992       11.3726789220  MEMB      77              0.0000000000
      8792        77  OSM       C6F           -25.6005704888       25.2728645558       10.0570263545  MEMB      77              0.0000000000
      8793        77  OSM       H6F           -25.0455996878       24.6970274775        9.2858327503  MEMB      77              0.0000000000
      8794        77  OSM       H6G           -25.4196373234       26.3342402706        9.7830454392  MEMB      77              0.0000000000
      8795        77  OSM       C7F           -27.1061938477       25.0715577390        9.9764663343  MEMB      77              0.0000000000
      8796        77  OSM       H7F           -27.3045809416       25.1948910353        8.8903019817  MEMB      77              0.0000000000
      8797        77  OSM       H7G           -27.5574065894       25.9304637747       10.5177690070  MEMB      77              0.0000000000
      8798        77  OSM       C8F           -27.6689000235       23.8652489553       10.6892160018  MEMB      77              0.0000000000
      8799        77  OSM       H8F           -27.4142871171       24.0039567344       11.7617147424  MEMB      77              0.0000000000
      8800        77  OSM       H8G           -27.2252068689       22.9846145433       10.1774145125  MEMB      77              0.0000000000
      8801        77  OSM       C9F           -29.1894534259       23.7124705886       10.5983941953  MEMB      77              0.0000000000
      8802        77  OSM       H9F           -29.7294885224       24.0814230790       11.4828351047  MEMB      77              0.0000000000
      8803        77  OSM       C10F          -29.8306668212       23.2205398102        9.5204740121  MEMB      77              0.0000000000
      8804        77  OSM       H10F          -30.9265832913       23.1615635952        9.5945592550  MEMB      77              0.0000000000
      8805        77  OSM       C11F          -29.2656133887       22.7021497114        8.1986791197  MEMB      77              0.0000000000
      8806        77  OSM       H11F          -29.6186758157       21.6701574677        7.9873502971  MEMB      77              0.0000000000
      8807        77  OSM       H11G          -28.1659782296       22.5910370413        8.3117162885  MEMB      77              0.0000000000
      8808        77  OSM       C12F          -29.6472094480       23.4889492519        6.9406350068  MEMB      77              0.0000000000
      8809        77  OSM       H12F          -29.2601647479       24.5170672022        7.1064387904  MEMB      77              0.0000000000
      8810        77  OSM       H12G          -30.7464681525       23.6293363410        6.8616220719  MEMB      77              0.0000000000
      8811        77  OSM       C13F          -28.9050671854       22.9899727775        5.6464929010  MEMB      77              0.0000000000
      8812        77  OSM       H13F          -29.5753111232       23.4158016594        4.8694709496  MEMB      77              0.0000000000
      8813        77  OSM       H13G          -28.9364349338       21.8800636939        5.6085561801  MEMB      77              0.0000000000
      8814        77  OSM       C14F          -27.4477199504       23.4688940401        5.4726981505  MEMB      77              0.0000000000
      8815        77  OSM       H14F          -26.8625430820       23.0194451091        6.3032911231  MEMB      77              0.0000000000
      8816        77  OSM       H14G          -27.4238549267       24.5597538475        5.6819257913  MEMB      77              0.0000000000
      8817        77  OSM       C15F          -26.7701918762       23.0761366371        4.1665384809  MEMB      77              0.0000000000
      8818        77  OSM       H15F          -27.4875021028       23.1606777163        3.3223583613  MEMB      77              0.0000000000
      8819        77  OSM       H15G          -26.3968319066       22.0310540702        4.2187459817  MEMB      77              0.0000000000
      8820        77  OSM       C16F          -25.4711399373       23.8771580682        3.8798630656  MEMB      77              0.0000000000
      8821        77  OSM       H16F          -24.8612948232       23.6109163486        4.7695397402  MEMB      77              0.0000000000
      8822        77  OSM       H16G          -25.6166100454       24.9757602480        3.8009126932  MEMB      77              0.0000000000
      8823        77  OSM       C17F          -24.8384463882       23.3497583851        2.5665800854  MEMB      77              0.0000000000
      8824        77  OSM       H17F          -25.6177613196       23.3275729951        1.7750636597  MEMB      77              0.0000000000
      8825        77  OSM       H17G          -24.5908831159       22.3017993706        2.8401036379  MEMB      77              0.0000000000
      8826        77  OSM       C18F          -23.7080688841       24.2148912769        2.1013882820  MEMB      77              0.0000000000
      8827        77  OSM       H18F          -22.8339404184       24.4806883285        2.7335048276  MEMB      77              0.0000000000
      8828        77  OSM       H18G          -24.0138701402       25.2051124561        1.7010526779  MEMB      77              0.0000000000
      8829        77  OSM       H18H          -23.2448909847       23.8967235391        1.1429733349  MEMB      77              0.0000000000
      8830        78  SAPS      N              19.1875161954       32.8659575932       22.1295986010  MEMB      78              0.0000000000
      8831        78  SAPS      HN1            19.2445794674       33.8443619788       22.4775482182  MEMB      78              0.0000000000
      8832        78  SAPS      HN2            18.2293656917       32.5269542154       21.9090895091  MEMB      78              0.0000000000
      8833        78  SAPS      HN3            19.6528024249       32.1057606995       22.6655178026  MEMB      78              0.0000000000
      8834        78  SAPS      C12            19.6883941248       33.0105634562       20.7064371984  MEMB      78              0.0000000000
      8835        78  SAPS      H12A           18.9899917490       33.7351594473       20.3145253937  MEMB      78              0.0000000000
      8836        78  SAPS      C13            21.1331990124       33.6289258214       20.6212675076  MEMB      78              0.0000000000
      8837        78  SAPS      O13A           21.7356160279       33.9621119165       21.6491668568  MEMB      78              0.0000000000
      8838        78  SAPS      O13B           21.6439666325       33.6748341204       19.4658111784  MEMB      78              0.0000000000
      8839        78  SAPS      C11            19.6499778419       31.6433739779       19.9673387649  MEMB      78              0.0000000000
      8840        78  SAPS      H11A           20.5445901968       31.1341043661       20.3852313465  MEMB      78              0.0000000000
      8841        78  SAPS      H11B           19.9095746222       31.7379072093       18.8912375225  MEMB      78              0.0000000000
      8842        78  SAPS      P              17.8132352139       30.0678363003       19.0970676939  MEMB      78              0.0000000000
      8843        78  SAPS      O13            18.7464352295       29.2661481280       18.2268456486  MEMB      78              0.0000000000
      8844        78  SAPS      O14            16.6917064755       29.3542393257       19.7091069105  MEMB      78              0.0000000000
      8845        78  SAPS      O12            18.5808795335       30.8217217928       20.2212719041  MEMB      78              0.0000000000
      8846        78  SAPS      O11            17.2641341970       31.2906577217       18.2060877756  MEMB      78              0.0000000000
      8847        78  SAPS      C1             16.3549018313       32.1739134648       18.7467366926  MEMB      78              0.0000000000
      8848        78  SAPS      HA             15.4312645888       31.5854874316       18.9337397528  MEMB      78              0.0000000000
      8849        78  SAPS      HB             16.7454325679       32.6530297196       19.6699130075  MEMB      78              0.0000000000
      8850        78  SAPS      C2             15.9339653630       33.2284001479       17.7075119267  MEMB      78              0.0000000000
      8851        78  SAPS      HS             14.9390141006       33.6548336498       17.9576065732  MEMB      78              0.0000000000
      8852        78  SAPS      O21            15.7952453037       32.7074338933       16.3425441350  MEMB      78              0.0000000000
      8853        78  SAPS      C21            14.8511354226       31.7946357537       16.1294972209  MEMB      78              0.0000000000
      8854        78  SAPS      O22            14.0500980791       31.4042775765       16.9925287167  MEMB      78              0.0000000000
      8855        78  SAPS      C22            14.9027254760       31.4569809559       14.5682821516  MEMB      78              0.0000000000
      8856        78  SAPS      H2R            15.9500104519       31.5461107370       14.2083222297  MEMB      78              0.0000000000
      8857        78  SAPS      H2S            14.6110588131       30.3992385202       14.3938331388  MEMB      78              0.0000000000
      8858        78  SAPS      C3             17.0103504688       34.3666648559       17.5123185277  MEMB      78              0.0000000000
      8859        78  SAPS      HX             17.1305948049       34.8589000158       18.5010384528  MEMB      78              0.0000000000
      8860        78  SAPS      HY             16.5981467577       35.0875496863       16.7742573849  MEMB      78              0.0000000000
      8861        78  SAPS      O31            18.3312569421       33.9629266136       17.1349217612  MEMB      78              0.0000000000
      8862        78  SAPS      C31            18.7542343292       34.2665770965       15.9001367603  MEMB      78              0.0000000000
      8863        78  SAPS      O32            18.2909565635       35.1455397029       15.2185656077  MEMB      78              0.0000000000
      8864        78  SAPS      C32            20.0386343287       33.5069042304       15.4971626117  MEMB      78              0.0000000000
      8865        78  SAPS      H2X            20.8401115372       33.9128829511       16.1507196518  MEMB      78              0.0000000000
      8866        78  SAPS      H2Y            20.3906917878       33.7451163031       14.4706973620  MEMB      78              0.0000000000
      8867        78  SAPS      C23            13.8159737702       32.1966866352       13.8123497049  MEMB      78              0.0000000000
      8868        78  SAPS      H3R            14.0506029797       33.2788575156       13.9027726340  MEMB      78              0.0000000000
      8869        78  SAPS      H3S            12.8365894006       31.9469137275       14.2735878708  MEMB      78              0.0000000000
      8870        78  SAPS      C24            13.7201776568       31.7935967238       12.3045835642  MEMB      78              0.0000000000
      8871        78  SAPS      H4R            12.9379194486       32.4491500071       11.8656730442  MEMB      78              0.0000000000
      8872        78  SAPS      H4S            13.3035218384       30.7654537406       12.2442456474  MEMB      78              0.0000000000
      8873        78  SAPS      C25            15.1051759911       31.8069196338       11.6604162203  MEMB      78              0.0000000000
      8874        78  SAPS      H5R            15.7660643827       32.6444472820       11.9283218316  MEMB      78              0.0000000000
      8875        78  SAPS      C26            15.6446653582       30.9569967430       10.7530839142  MEMB      78              0.0000000000
      8876        78  SAPS      H6R            16.6748305880       31.1515434076       10.4200507813  MEMB      78              0.0000000000
      8877        78  SAPS      C27            14.9191239840       29.7705729096       10.1330171699  MEMB      78              0.0000000000
      8878        78  SAPS      H7R            15.1485270963       29.7199147031        9.0471402133  MEMB      78              0.0000000000
      8879        78  SAPS      H7S            13.8270903384       29.9453648683       10.2389940007  MEMB      78              0.0000000000
      8880        78  SAPS      C28            15.0908545017       28.3810139352       10.6979778974  MEMB      78              0.0000000000
      8881        78  SAPS      H8R            14.8516567469       28.2799035780       11.7668841184  MEMB      78              0.0000000000
      8882        78  SAPS      C29            15.5415191142       27.2653655039       10.1852201139  MEMB      78              0.0000000000
      8883        78  SAPS      H9R            15.6178048261       26.3624426176       10.8088478121  MEMB      78              0.0000000000
      8884        78  SAPS      C210           15.9942810537       27.0600574711        8.8072008344  MEMB      78              0.0000000000
      8885        78  SAPS      H10R           15.3460865542       27.6184060120        8.0983904022  MEMB      78              0.0000000000
      8886        78  SAPS      H10S           16.1000509716       25.9985746186        8.4967370019  MEMB      78              0.0000000000
      8887        78  SAPS      C211           17.4356968203       27.5622460309        8.7489033597  MEMB      78              0.0000000000
      8888        78  SAPS      H11R           18.1545710002       27.0800425211        9.4276518986  MEMB      78              0.0000000000
      8889        78  SAPS      C212           17.9581716759       28.3566878586        7.8190434171  MEMB      78              0.0000000000
      8890        78  SAPS      H12R           19.0317280422       28.5935103430        7.8563514848  MEMB      78              0.0000000000
      8891        78  SAPS      C213           17.1708804593       28.9206835596        6.6824380263  MEMB      78              0.0000000000
      8892        78  SAPS      H13R           17.0287231071       30.0176614804        6.7861301792  MEMB      78              0.0000000000
      8893        78  SAPS      H13S           16.0925971856       28.6669509393        6.5973153697  MEMB      78              0.0000000000
      8894        78  SAPS      C214           18.0113373359       28.6049480283        5.4473951851  MEMB      78              0.0000000000
      8895        78  SAPS      H14R           19.0411482672       28.9898993495        5.4834774584  MEMB      78              0.0000000000
      8896        78  SAPS      C215           17.5181013909       28.0841334316        4.3876651157  MEMB      78              0.0000000000
      8897        78  SAPS      H15R           18.2538200518       27.9209681469        3.5863568060  MEMB      78              0.0000000000
      8898        78  SAPS      C216           16.1384535899       27.6637189512        3.9913585232  MEMB      78              0.0000000000
      8899        78  SAPS      H16R           15.3260729787       28.0437363700        4.6470605535  MEMB      78              0.0000000000
      8900        78  SAPS      H16S           16.0262301901       26.5659922194        3.8620411184  MEMB      78              0.0000000000
      8901        78  SAPS      C217           15.6493759158       28.2062423517        2.6522134935  MEMB      78              0.0000000000
      8902        78  SAPS      H17R           15.5584356054       29.3126712707        2.6954067908  MEMB      78              0.0000000000
      8903        78  SAPS      H17S           14.6466924590       27.7731623813        2.4487702645  MEMB      78              0.0000000000
      8904        78  SAPS      C218           16.4478959388       27.7814642733        1.4345262540  MEMB      78              0.0000000000
      8905        78  SAPS      H18R           16.6542815009       26.6902222576        1.4042582598  MEMB      78              0.0000000000
      8906        78  SAPS      H18S           17.4411920197       28.2669355008        1.5440782098  MEMB      78              0.0000000000
      8907        78  SAPS      C219           15.7651415445       28.3272154774        0.1693581723  MEMB      78              0.0000000000
      8908        78  SAPS      H19R           15.9417817267       29.4237012304        0.1404131448  MEMB      78              0.0000000000
      8909        78  SAPS      H19S           14.6714593460       28.1372096779        0.2149423338  MEMB      78              0.0000000000
      8910        78  SAPS      C220           16.2003505747       27.6116641481       -1.1809169076  MEMB      78              0.0000000000
      8911        78  SAPS      H20R           16.2227201799       26.5334343185       -0.9140080350  MEMB      78              0.0000000000
      8912        78  SAPS      H20S           17.2353606850       27.9763346770       -1.3543833687  MEMB      78              0.0000000000
      8913        78  SAPS      H20T           15.5403175202       27.7550637113       -2.0630253945  MEMB      78              0.0000000000
      8914        78  SAPS      C33            19.8349096457       31.9811731059       15.8634943747  MEMB      78              0.0000000000
      8915        78  SAPS      H3X            19.1812274217       31.9129216536       16.7592410828  MEMB      78              0.0000000000
      8916        78  SAPS      H3Y            20.8135912754       31.5914761377       16.2165376579  MEMB      78              0.0000000000
      8917        78  SAPS      C34            19.2006595941       31.1225885025       14.7939024858  MEMB      78              0.0000000000
      8918        78  SAPS      H4X            18.5456166290       31.7445266701       14.1470383733  MEMB      78              0.0000000000
      8919        78  SAPS      H4Y            18.6051869130       30.3563282134       15.3348075173  MEMB      78              0.0000000000
      8920        78  SAPS      C35            20.3033040943       30.3674234942       14.0445835187  MEMB      78              0.0000000000
      8921        78  SAPS      H5X            20.8412309470       29.7666176671       14.8087745814  MEMB      78              0.0000000000
      8922        78  SAPS      H5Y            20.8975061101       31.1551934319       13.5340314386  MEMB      78              0.0000000000
      8923        78  SAPS      C36            19.7723048661       29.3606632521       12.9411630955  MEMB      78              0.0000000000
      8924        78  SAPS      H6X            18.9516784705       29.7472175228       12.2997046860  MEMB      78              0.0000000000
      8925        78  SAPS      H6Y            19.3188692193       28.6178515118       13.6317772561  MEMB      78              0.0000000000
      8926        78  SAPS      C37            20.8123528109       28.9024308806       12.0026364100  MEMB      78              0.0000000000
      8927        78  SAPS      H7X            20.2510935654       28.0675452087       11.5311764450  MEMB      78              0.0000000000
      8928        78  SAPS      H7Y            21.6684020043       28.6309022760       12.6566801912  MEMB      78              0.0000000000
      8929        78  SAPS      C38            21.4666589415       29.9183672892       11.0389595085  MEMB      78              0.0000000000
      8930        78  SAPS      H8X            22.0325842017       29.3734542517       10.2533900093  MEMB      78              0.0000000000
      8931        78  SAPS      H8Y            22.3106181661       30.3710764561       11.6020831645  MEMB      78              0.0000000000
      8932        78  SAPS      C39            20.5822078916       30.9431152793       10.3231117576  MEMB      78              0.0000000000
      8933        78  SAPS      H9X            20.1802683674       31.6665744209       11.0643080682  MEMB      78              0.0000000000
      8934        78  SAPS      H9Y            19.7492273519       30.3842176370        9.8455160973  MEMB      78              0.0000000000
      8935        78  SAPS      C310           21.2800568155       31.6283938250        9.1460477363  MEMB      78              0.0000000000
      8936        78  SAPS      H10X           21.4426750048       30.9565519756        8.2762750213  MEMB      78              0.0000000000
      8937        78  SAPS      H10Y           22.3274179262       31.9009387977        9.3971960631  MEMB      78              0.0000000000
      8938        78  SAPS      C311           20.5045146664       32.9166596946        8.7200748871  MEMB      78              0.0000000000
      8939        78  SAPS      H11X           21.0774174186       33.2617346193        7.8329291475  MEMB      78              0.0000000000
      8940        78  SAPS      H11Y           20.3760831167       33.5755942399        9.6053045804  MEMB      78              0.0000000000
      8941        78  SAPS      C312           19.1415805109       32.6999142932        8.0457583082  MEMB      78              0.0000000000
      8942        78  SAPS      H12X           18.4980253139       32.4602705369        8.9191014368  MEMB      78              0.0000000000
      8943        78  SAPS      H12Y           19.1238157090       31.9339835345        7.2411740275  MEMB      78              0.0000000000
      8944        78  SAPS      C313           18.5955785657       34.1259265942        7.4107290856  MEMB      78              0.0000000000
      8945        78  SAPS      H13X           19.2926469643       34.5242635124        6.6427805083  MEMB      78              0.0000000000
      8946        78  SAPS      H13Y           18.3957746998       34.9048046451        8.1773765432  MEMB      78              0.0000000000
      8947        78  SAPS      C314           17.2460720388       34.0977464663        6.7000789727  MEMB      78              0.0000000000
      8948        78  SAPS      H14X           16.6893753253       35.0320836454        6.9268470868  MEMB      78              0.0000000000
      8949        78  SAPS      H14Y           16.6011981739       33.2515945337        7.0202121933  MEMB      78              0.0000000000
      8950        78  SAPS      C315           17.3796674517       34.0140446385        5.2319588654  MEMB      78              0.0000000000
      8951        78  SAPS      H15X           17.9162725054       33.0671254271        5.0089789046  MEMB      78              0.0000000000
      8952        78  SAPS      H15Y           17.8836844235       34.8635670605        4.7234319845  MEMB      78              0.0000000000
      8953        78  SAPS      C316           16.0934801362       33.7762082515        4.4812360704  MEMB      78              0.0000000000
      8954        78  SAPS      H16X           15.5655529157       34.7056835965        4.7840387089  MEMB      78              0.0000000000
      8955        78  SAPS      H16Y           15.5981521511       32.8532496265        4.8515313879  MEMB      78              0.0000000000
      8956        78  SAPS      C317           16.1747680993       33.6895650692        2.9843297622  MEMB      78              0.0000000000
      8957        78  SAPS      H17X           16.7107844462       32.7592729846        2.6987346802  MEMB      78              0.0000000000
      8958        78  SAPS      H17Y           16.7373671032       34.5734256659        2.6147434778  MEMB      78              0.0000000000
      8959        78  SAPS      C318           14.8376730371       33.4594251179        2.3076360698  MEMB      78              0.0000000000
      8960        78  SAPS      H18X           14.3419282448       32.5885524699        2.7873640392  MEMB      78              0.0000000000
      8961        78  SAPS      H18Y           14.9502333874       33.3095768937        1.2125587699  MEMB      78              0.0000000000
      8962        78  SAPS      H18Z           14.2981268456       34.4062784938        2.5236913732  MEMB      78              0.0000000000
      8963        79  SAPS      N             -37.2741923634       -7.2190791504       21.6149950082  MEMB      79              0.0000000000
      8964        79  SAPS      HN1           -37.1282464991       -6.1959838164       21.7315099558  MEMB      79              0.0000000000
      8965        79  SAPS      HN2           -38.0144622743       -7.3068054742       20.8898023036  MEMB      79              0.0000000000
      8966        79  SAPS      HN3           -37.6205866195       -7.7777036638       22.4209413988  MEMB      79              0.0000000000
      8967        79  SAPS      C12           -36.0540428475       -7.9111476059       21.1196393991  MEMB      79              0.0000000000
      8968        79  SAPS      H12A          -35.8083111986       -7.3228736182       20.2478885069  MEMB      79              0.0000000000
      8969        79  SAPS      C13           -34.7699809496       -7.8439599760       22.0720904972  MEMB      79              0.0000000000
      8970        79  SAPS      O13A          -34.7754799194       -7.2351480915       23.1852186245  MEMB      79              0.0000000000
      8971        79  SAPS      O13B          -33.7024844770       -8.3041723398       21.5585679970  MEMB      79              0.0000000000
      8972        79  SAPS      C11           -36.2878319122       -9.3297194009       20.4214761383  MEMB      79              0.0000000000
      8973        79  SAPS      H11A          -36.6865399899       -9.9388784759       21.2606888746  MEMB      79              0.0000000000
      8974        79  SAPS      H11B          -35.3334600553       -9.7628942276       20.0528911413  MEMB      79              0.0000000000
      8975        79  SAPS      P             -37.0593694981       -9.3650091851       17.9661237365  MEMB      79              0.0000000000
      8976        79  SAPS      O13           -35.9899289338       -8.4055356192       17.6544394112  MEMB      79              0.0000000000
      8977        79  SAPS      O14           -36.9455133734      -10.7693052027       17.4371078462  MEMB      79              0.0000000000
      8978        79  SAPS      O12           -37.3550982060       -9.4141044743       19.4439765927  MEMB      79              0.0000000000
      8979        79  SAPS      O11           -38.3595781194       -8.6616625542       17.5263647622  MEMB      79              0.0000000000
      8980        79  SAPS      C1            -39.5488663703       -8.7486725431       18.2094632378  MEMB      79              0.0000000000
      8981        79  SAPS      HA            -39.7560419055       -9.8222396401       18.4065744444  MEMB      79              0.0000000000
      8982        79  SAPS      HB            -39.4659234708       -8.3053222517       19.2247868119  MEMB      79              0.0000000000
      8983        79  SAPS      C2            -40.6477131484       -8.0974599979       17.3969027173  MEMB      79              0.0000000000
      8984        79  SAPS      HS            -41.6454332404       -8.4327550834       17.7525045940  MEMB      79              0.0000000000
      8985        79  SAPS      O21           -40.4721593196       -8.2885198549       15.9650099769  MEMB      79              0.0000000000
      8986        79  SAPS      C21           -40.4230897072       -9.5426841159       15.4919403919  MEMB      79              0.0000000000
      8987        79  SAPS      O22           -40.5515131291      -10.5181376935       16.2257161562  MEMB      79              0.0000000000
      8988        79  SAPS      C22           -40.2463325117       -9.5469501851       13.9917341111  MEMB      79              0.0000000000
      8989        79  SAPS      H2R           -41.1351404763       -9.9954526546       13.4985937289  MEMB      79              0.0000000000
      8990        79  SAPS      H2S           -40.0338205974       -8.5679080621       13.5114880008  MEMB      79              0.0000000000
      8991        79  SAPS      C3            -40.5662512518       -6.5710288040       17.6584979391  MEMB      79              0.0000000000
      8992        79  SAPS      HX            -40.7920450584       -6.5441832055       18.7459801418  MEMB      79              0.0000000000
      8993        79  SAPS      HY            -41.2948940172       -5.9397246722       17.1063607934  MEMB      79              0.0000000000
      8994        79  SAPS      O31           -39.2069135873       -6.0629285565       17.4766649754  MEMB      79              0.0000000000
      8995        79  SAPS      C31           -38.5385383181       -5.5189392526       18.5043628586  MEMB      79              0.0000000000
      8996        79  SAPS      O32           -39.0013174514       -5.2765940977       19.5726561606  MEMB      79              0.0000000000
      8997        79  SAPS      C32           -37.1248613942       -5.1986493692       18.0232941625  MEMB      79              0.0000000000
      8998        79  SAPS      H2X           -36.4179043771       -5.8599485456       18.5684695803  MEMB      79              0.0000000000
      8999        79  SAPS      H2Y           -36.8001636036       -4.1422814593       18.1372210116  MEMB      79              0.0000000000
      9000        79  SAPS      C23           -39.0824938216      -10.4789045600       13.6094579213  MEMB      79              0.0000000000
      9001        79  SAPS      H3R           -39.4284199749      -11.1551054935       12.7986509487  MEMB      79              0.0000000000
      9002        79  SAPS      H3S           -38.7073289624      -11.1840316811       14.3817065967  MEMB      79              0.0000000000
      9003        79  SAPS      C24           -37.8566195151       -9.6726517680       13.0416976476  MEMB      79              0.0000000000
      9004        79  SAPS      H4R           -37.5427188235       -8.9533855778       13.8281092526  MEMB      79              0.0000000000
      9005        79  SAPS      H4S           -38.2264098302       -9.0593531797       12.1923206502  MEMB      79              0.0000000000
      9006        79  SAPS      C25           -36.8214138615      -10.6686874509       12.5551432152  MEMB      79              0.0000000000
      9007        79  SAPS      H5R           -37.2017444788      -11.4067987355       11.8336588218  MEMB      79              0.0000000000
      9008        79  SAPS      C26           -35.5387816076      -10.8431319287       12.9275659077  MEMB      79              0.0000000000
      9009        79  SAPS      H6R           -34.9197886343      -11.6634670208       12.5352674409  MEMB      79              0.0000000000
      9010        79  SAPS      C27           -34.7585791934      -10.0066411788       13.9113519863  MEMB      79              0.0000000000
      9011        79  SAPS      H7R           -35.0765943245      -10.3436561317       14.9211086693  MEMB      79              0.0000000000
      9012        79  SAPS      H7S           -35.0647806850       -8.9391524222       13.8792659050  MEMB      79              0.0000000000
      9013        79  SAPS      C28           -33.2581746541       -9.9431286523       13.7585470370  MEMB      79              0.0000000000
      9014        79  SAPS      H8R           -32.6888668682      -10.8403488322       14.0429491134  MEMB      79              0.0000000000
      9015        79  SAPS      C29           -32.5096507521       -9.0352990532       13.1606538155  MEMB      79              0.0000000000
      9016        79  SAPS      H9R           -31.4286410904       -9.1802749356       13.0178248381  MEMB      79              0.0000000000
      9017        79  SAPS      C210          -32.9272358245       -7.7309073029       12.4422156859  MEMB      79              0.0000000000
      9018        79  SAPS      H10R          -31.9995375697       -7.2927438251       12.0159408245  MEMB      79              0.0000000000
      9019        79  SAPS      H10S          -33.0799362375       -7.0957461762       13.3408669852  MEMB      79              0.0000000000
      9020        79  SAPS      C211          -33.9817741666       -7.4568344639       11.4358394414  MEMB      79              0.0000000000
      9021        79  SAPS      H11R          -34.8879703562       -6.9990821742       11.8592435593  MEMB      79              0.0000000000
      9022        79  SAPS      C212          -34.0409610494       -7.6783066708       10.1230195063  MEMB      79              0.0000000000
      9023        79  SAPS      H12R          -34.8993566708       -7.2787898277        9.5630697064  MEMB      79              0.0000000000
      9024        79  SAPS      C213          -32.9594756868       -8.2770910242        9.3053387034  MEMB      79              0.0000000000
      9025        79  SAPS      H13R          -31.9941576744       -8.1639857334        9.8435664296  MEMB      79              0.0000000000
      9026        79  SAPS      H13S          -32.8033109639       -7.6393785328        8.4090927138  MEMB      79              0.0000000000
      9027        79  SAPS      C214          -32.9741228926       -9.7557535919        8.9616049305  MEMB      79              0.0000000000
      9028        79  SAPS      H14R          -32.9212798836      -10.4947842463        9.7746494809  MEMB      79              0.0000000000
      9029        79  SAPS      C215          -33.1547411030      -10.2498795325        7.7097918467  MEMB      79              0.0000000000
      9030        79  SAPS      H15R          -33.2786156181      -11.3428743593        7.7056193482  MEMB      79              0.0000000000
      9031        79  SAPS      C216          -33.3675479477       -9.4976849689        6.4332655281  MEMB      79              0.0000000000
      9032        79  SAPS      H16R          -33.8316440181       -8.4927197398        6.5280323860  MEMB      79              0.0000000000
      9033        79  SAPS      H16S          -34.1053936844      -10.0186965070        5.7863870423  MEMB      79              0.0000000000
      9034        79  SAPS      C217          -32.0659911086       -9.3467364717        5.5532661674  MEMB      79              0.0000000000
      9035        79  SAPS      H17R          -31.5883380609      -10.3462751952        5.4690577125  MEMB      79              0.0000000000
      9036        79  SAPS      H17S          -31.3625944743       -8.6803219949        6.0968156372  MEMB      79              0.0000000000
      9037        79  SAPS      C218          -32.2378281611       -8.8202339011        4.1088129090  MEMB      79              0.0000000000
      9038        79  SAPS      H18R          -31.2425988972       -8.5837562067        3.6753175112  MEMB      79              0.0000000000
      9039        79  SAPS      H18S          -32.7228701959       -7.8207795108        4.1209083501  MEMB      79              0.0000000000
      9040        79  SAPS      C219          -32.8956066368       -9.7994074132        3.2032201475  MEMB      79              0.0000000000
      9041        79  SAPS      H19R          -33.9940819422       -9.8580894505        3.3588804006  MEMB      79              0.0000000000
      9042        79  SAPS      H19S          -32.4131744721      -10.7652478835        3.4653893965  MEMB      79              0.0000000000
      9043        79  SAPS      C220          -32.7310656467       -9.6324923903        1.6693920990  MEMB      79              0.0000000000
      9044        79  SAPS      H20R          -32.7016612133       -8.5599688053        1.3810352167  MEMB      79              0.0000000000
      9045        79  SAPS      H20S          -33.5174045736      -10.2108165900        1.1387959754  MEMB      79              0.0000000000
      9046        79  SAPS      H20T          -31.7274089878      -10.0205344561        1.3929563456  MEMB      79              0.0000000000
      9047        79  SAPS      C33           -36.9978963690       -5.3832077613       16.4845155283  MEMB      79              0.0000000000
      9048        79  SAPS      H3X           -37.7030946420       -4.7306372734       15.9266912450  MEMB      79              0.0000000000
      9049        79  SAPS      H3Y           -37.1869335850       -6.4357468554       16.1832724430  MEMB      79              0.0000000000
      9050        79  SAPS      C34           -35.6497222122       -5.0341763303       15.9820434165  MEMB      79              0.0000000000
      9051        79  SAPS      H4X           -34.8736283009       -5.6891322302       16.4326344727  MEMB      79              0.0000000000
      9052        79  SAPS      H4Y           -35.2829811346       -4.0289410111       16.2809139638  MEMB      79              0.0000000000
      9053        79  SAPS      C35           -35.7649225983       -5.1909295848       14.4070578993  MEMB      79              0.0000000000
      9054        79  SAPS      H5X           -36.3014701136       -6.1212112121       14.1224285647  MEMB      79              0.0000000000
      9055        79  SAPS      H5Y           -34.7595297145       -5.2676112827       13.9405536517  MEMB      79              0.0000000000
      9056        79  SAPS      C36           -36.3857126283       -3.8862465034       13.8242670077  MEMB      79              0.0000000000
      9057        79  SAPS      H6X           -35.7420278829       -2.9926306758       13.9706969571  MEMB      79              0.0000000000
      9058        79  SAPS      H6Y           -37.2987592151       -3.5984720086       14.3880510791  MEMB      79              0.0000000000
      9059        79  SAPS      C37           -36.8588688111       -4.0447633904       12.4285177741  MEMB      79              0.0000000000
      9060        79  SAPS      H7X           -36.0121047721       -4.6263932277       12.0054121193  MEMB      79              0.0000000000
      9061        79  SAPS      H7Y           -37.0172467391       -3.1560217674       11.7809251170  MEMB      79              0.0000000000
      9062        79  SAPS      C38           -38.1730094463       -4.9269483110       12.3381210630  MEMB      79              0.0000000000
      9063        79  SAPS      H8X           -39.0449145625       -4.3582980530       12.7263729481  MEMB      79              0.0000000000
      9064        79  SAPS      H8Y           -38.1849349138       -5.7877267383       13.0404307905  MEMB      79              0.0000000000
      9065        79  SAPS      C39           -38.4420375132       -5.5229820713       10.9696533455  MEMB      79              0.0000000000
      9066        79  SAPS      H9X           -37.6079024378       -6.1789966448       10.6407390454  MEMB      79              0.0000000000
      9067        79  SAPS      H9Y           -38.3977827047       -4.6929288645       10.2325142897  MEMB      79              0.0000000000
      9068        79  SAPS      C310          -39.7001316791       -6.4422915832       10.8271914910  MEMB      79              0.0000000000
      9069        79  SAPS      H10X          -40.6333243915       -5.9658316454       11.1965944868  MEMB      79              0.0000000000
      9070        79  SAPS      H10Y          -39.4239420294       -7.2862681064       11.4948327650  MEMB      79              0.0000000000
      9071        79  SAPS      C311          -39.9455769957       -6.9064700575        9.3427315123  MEMB      79              0.0000000000
      9072        79  SAPS      H11X          -40.0063819425       -6.0025099005        8.6997065718  MEMB      79              0.0000000000
      9073        79  SAPS      H11Y          -40.8668447960       -7.5234126450        9.2722428721  MEMB      79              0.0000000000
      9074        79  SAPS      C312          -38.7055783888       -7.6293605742        8.7255530470  MEMB      79              0.0000000000
      9075        79  SAPS      H12X          -38.3165903045       -8.3872214264        9.4387547577  MEMB      79              0.0000000000
      9076        79  SAPS      H12Y          -37.9079639534       -6.8799526510        8.5344514756  MEMB      79              0.0000000000
      9077        79  SAPS      C313          -38.8937027008       -8.3220922262        7.4003736565  MEMB      79              0.0000000000
      9078        79  SAPS      H13X          -38.9554499073       -7.6281547318        6.5349489983  MEMB      79              0.0000000000
      9079        79  SAPS      H13Y          -39.8614624249       -8.8595235911        7.4948682230  MEMB      79              0.0000000000
      9080        79  SAPS      C314          -37.7919135001       -9.2713389730        7.0053791349  MEMB      79              0.0000000000
      9081        79  SAPS      H14X          -37.7217830069      -10.1781340527        7.6434426033  MEMB      79              0.0000000000
      9082        79  SAPS      H14Y          -36.7726692074       -8.8516285068        7.1443229062  MEMB      79              0.0000000000
      9083        79  SAPS      C315          -37.8552555760       -9.7057089195        5.4864226814  MEMB      79              0.0000000000
      9084        79  SAPS      H15X          -38.9179195151       -9.9522802949        5.2760204508  MEMB      79              0.0000000000
      9085        79  SAPS      H15Y          -37.3839983340      -10.7081658809        5.5719655081  MEMB      79              0.0000000000
      9086        79  SAPS      C316          -37.1185538821       -8.7374002054        4.5037167436  MEMB      79              0.0000000000
      9087        79  SAPS      H16X          -36.0530010812       -8.6126403597        4.7924256869  MEMB      79              0.0000000000
      9088        79  SAPS      H16Y          -37.6861153510       -7.7828944501        4.5370877016  MEMB      79              0.0000000000
      9089        79  SAPS      C317          -37.0803015460       -9.3756692214        3.0982375143  MEMB      79              0.0000000000
      9090        79  SAPS      H17X          -38.0922903482       -9.8103884184        2.9525713105  MEMB      79              0.0000000000
      9091        79  SAPS      H17Y          -36.3695686565      -10.2263947127        3.0244389349  MEMB      79              0.0000000000
      9092        79  SAPS      C318          -36.6524996143       -8.4683608345        2.0172620269  MEMB      79              0.0000000000
      9093        79  SAPS      H18X          -36.3246105998       -8.9972840506        1.0969092771  MEMB      79              0.0000000000
      9094        79  SAPS      H18Y          -35.7837714836       -7.9054623540        2.4207182998  MEMB      79              0.0000000000
      9095        79  SAPS      H18Z          -37.5467128003       -7.8253840416        1.8713685610  MEMB      79              0.0000000000
      9096        80  CHL1      C3             14.2841277234      -34.3259240910       17.3280650000  MEMB      80              0.0000000000
      9097        80  CHL1      H3             15.3539513565      -34.2038851946       17.0544150000  MEMB      80              0.0000000000
      9098        80  CHL1      O3             14.0502360082      -34.7121184514       18.6719350000  MEMB      80              0.0000000000
      9099        80  CHL1      H3'            13.2184225825      -34.2866477031       18.8925550000  MEMB      80              0.0000000000
      9100        80  CHL1      C4             13.5310736268      -32.9860755325       16.8472150000  MEMB      80              0.0000000000
      9101        80  CHL1      H4A            12.4732802351      -32.9495654279       17.1849550000  MEMB      80              0.0000000000
      9102        80  CHL1      H4B            14.0423425751      -32.2211158717       17.4699150000  MEMB      80              0.0000000000
      9103        80  CHL1      C5             13.5189745383      -32.6576895190       15.3940650000  MEMB      80              0.0000000000
      9104        80  CHL1      C6             13.9106696550      -31.5023699033       15.0019650000  MEMB      80              0.0000000000
      9105        80  CHL1      H6             14.1776843689      -30.7961895307       15.8019750000  MEMB      80              0.0000000000
      9106        80  CHL1      C7             13.9664392943      -31.0879568878       13.5640650000  MEMB      80              0.0000000000
      9107        80  CHL1      H7A            13.5207986181      -30.0704990952       13.5413650000  MEMB      80              0.0000000000
      9108        80  CHL1      H7B            14.9968142950      -30.8174172174       13.2487050000  MEMB      80              0.0000000000
      9109        80  CHL1      C8             13.2278522170      -32.0866960188       12.6107750000  MEMB      80              0.0000000000
      9110        80  CHL1      H8             12.1414124308      -31.8695546287       12.6933150000  MEMB      80              0.0000000000
      9111        80  CHL1      C14            13.6804458968      -31.8371720018       11.1846650000  MEMB      80              0.0000000000
      9112        80  CHL1      H14            14.7593655695      -32.0562537763       11.3338350000  MEMB      80              0.0000000000
      9113        80  CHL1      C15            13.7386099570      -30.4032351154       10.6532450000  MEMB      80              0.0000000000
      9114        80  CHL1      H15A           12.8732096543      -29.8292922814       11.0482150000  MEMB      80              0.0000000000
      9115        80  CHL1      H15B           14.6987725509      -29.9168548834       10.9286350000  MEMB      80              0.0000000000
      9116        80  CHL1      C16            13.6671793942      -30.5613329876        9.0450950000  MEMB      80              0.0000000000
      9117        80  CHL1      H16A           12.7460420926      -30.0850619508        8.6463450000  MEMB      80              0.0000000000
      9118        80  CHL1      H16B           14.5895458733      -30.1168992490        8.6137950000  MEMB      80              0.0000000000
      9119        80  CHL1      C17            13.6728634611      -32.1123897390        8.8023150000  MEMB      80              0.0000000000
      9120        80  CHL1      H17            14.7469761238      -32.3376627295        8.9750750000  MEMB      80              0.0000000000
      9121        80  CHL1      C13            13.0915013016      -32.7628910989       10.0771950000  MEMB      80              0.0000000000
      9122        80  CHL1      C18            11.5473438394      -32.6356980138       10.0942150000  MEMB      80              0.0000000000
      9123        80  CHL1      H18A           11.0964981913      -31.6589454637        9.8166950000  MEMB      80              0.0000000000
      9124        80  CHL1      H18B           11.1914725164      -33.3582547327        9.3289750000  MEMB      80              0.0000000000
      9125        80  CHL1      H18C           11.1154897730      -32.8705317708       11.0905450000  MEMB      80              0.0000000000
      9126        80  CHL1      C12            13.4012311417      -34.1967660966       10.4695950000  MEMB      80              0.0000000000
      9127        80  CHL1      H12A           13.0470236665      -34.8205804897        9.6212350000  MEMB      80              0.0000000000
      9128        80  CHL1      H12B           14.5020319417      -34.3158664290       10.3781450000  MEMB      80              0.0000000000
      9129        80  CHL1      C11            12.9559048067      -34.5714344146       11.8971450000  MEMB      80              0.0000000000
      9130        80  CHL1      H11A           11.8459291716      -34.5314333541       11.8715050000  MEMB      80              0.0000000000
      9131        80  CHL1      H11B           13.2295354155      -35.6263340438       12.1131150000  MEMB      80              0.0000000000
      9132        80  CHL1      C9             13.5173599636      -33.5409857130       12.9903750000  MEMB      80              0.0000000000
      9133        80  CHL1      H9             14.6254529519      -33.5919428924       12.9282750000  MEMB      80              0.0000000000
      9134        80  CHL1      C10            13.1568933362      -33.9200720416       14.4787650000  MEMB      80              0.0000000000
      9135        80  CHL1      C19            11.6581647169      -34.2654736781       14.5570950000  MEMB      80              0.0000000000
      9136        80  CHL1      H19A           11.3850398339      -35.2778505005       14.1899150000  MEMB      80              0.0000000000
      9137        80  CHL1      H19B           11.3724180444      -34.3459141129       15.6277050000  MEMB      80              0.0000000000
      9138        80  CHL1      H19C           10.9703912149      -33.5850781852       14.0108750000  MEMB      80              0.0000000000
      9139        80  CHL1      C1             13.9412864982      -35.1288946753       14.9396550000  MEMB      80              0.0000000000
      9140        80  CHL1      H1A            13.6028969958      -35.9819964900       14.3135450000  MEMB      80              0.0000000000
      9141        80  CHL1      H1B            14.9862589214      -35.0773723605       14.5658850000  MEMB      80              0.0000000000
      9142        80  CHL1      C2             13.7450274591      -35.4539968121       16.3872650000  MEMB      80              0.0000000000
      9143        80  CHL1      H2A            14.2560870431      -36.4155318811       16.6077150000  MEMB      80              0.0000000000
      9144        80  CHL1      H2B            12.6875442114      -35.5787259481       16.7042450000  MEMB      80              0.0000000000
      9145        80  CHL1      C20            13.2320937805      -32.7786455069        7.5177350000  MEMB      80              0.0000000000
      9146        80  CHL1      H20            12.7697002919      -33.7660186194        7.7312950000  MEMB      80              0.0000000000
      9147        80  CHL1      C21            14.5062361844      -33.0143154943        6.7231550000  MEMB      80              0.0000000000
      9148        80  CHL1      H21A           14.2945464424      -33.4359652815        5.7173150000  MEMB      80              0.0000000000
      9149        80  CHL1      H21B           15.2288561491      -33.5653510345        7.3622950000  MEMB      80              0.0000000000
      9150        80  CHL1      H21C           15.0088822560      -32.0468354474        6.5095050000  MEMB      80              0.0000000000
      9151        80  CHL1      C22            12.1183308630      -31.9570811946        6.8256950000  MEMB      80              0.0000000000
      9152        80  CHL1      H22A           11.3921513705      -31.4514360130        7.4974850000  MEMB      80              0.0000000000
      9153        80  CHL1      H22B           12.5193064031      -31.1000353735        6.2434450000  MEMB      80              0.0000000000
      9154        80  CHL1      C23            11.3554985160      -32.7561773227        5.8079150000  MEMB      80              0.0000000000
      9155        80  CHL1      H23A           12.0520115192      -33.2519441688        5.0984050000  MEMB      80              0.0000000000
      9156        80  CHL1      H23B           10.7454246714      -33.5249831070        6.3285550000  MEMB      80              0.0000000000
      9157        80  CHL1      C24            10.4186681441      -31.9672423363        4.9388250000  MEMB      80              0.0000000000
      9158        80  CHL1      H24A            9.7188459454      -31.4283604647        5.6127450000  MEMB      80              0.0000000000
      9159        80  CHL1      H24B           10.9463100306      -31.1624632244        4.3836250000  MEMB      80              0.0000000000
      9160        80  CHL1      C25             9.5489397169      -32.7616564731        3.9217950000  MEMB      80              0.0000000000
      9161        80  CHL1      H25            10.1808726247      -33.6390998174        3.6667050000  MEMB      80              0.0000000000
      9162        80  CHL1      C26             8.2952031253      -33.1313655981        4.5613350000  MEMB      80              0.0000000000
      9163        80  CHL1      H26A            7.6782363473      -32.2583005592        4.8637150000  MEMB      80              0.0000000000
      9164        80  CHL1      H26B            7.7086536774      -33.8456735919        3.9448650000  MEMB      80              0.0000000000
      9165        80  CHL1      H26C            8.5226769931      -33.7856213609        5.4299750000  MEMB      80              0.0000000000
      9166        80  CHL1      C27             9.1857099887      -31.9872499402        2.6461050000  MEMB      80              0.0000000000
      9167        80  CHL1      H27A            8.6493630819      -31.0360780030        2.8508250000  MEMB      80              0.0000000000
      9168        80  CHL1      H27B           10.0860598270      -31.6323386458        2.1004650000  MEMB      80              0.0000000000
      9169        80  CHL1      H27C            8.6926083996      -32.6116300403        1.8706450000  MEMB      80              0.0000000000
      9170        81  CHL1      C3             35.5095710997       13.1726036431       17.2956250000  MEMB      81              0.0000000000
      9171        81  CHL1      H3             34.5080926106       12.7859413592       17.0095350000  MEMB      81              0.0000000000
      9172        81  CHL1      O3             35.6460917003       13.1763377569       18.7043750000  MEMB      81              0.0000000000
      9173        81  CHL1      H3'            36.0355781869       12.3508430182       19.0018150000  MEMB      81              0.0000000000
      9174        81  CHL1      C4             36.6661694254       12.4256875983       16.5540750000  MEMB      81              0.0000000000
      9175        81  CHL1      H4A            37.5610408041       12.8420493862       17.0641450000  MEMB      81              0.0000000000
      9176        81  CHL1      H4B            36.6366276830       11.3843939988       16.9402950000  MEMB      81              0.0000000000
      9177        81  CHL1      C5             36.8195214361       12.6025459973       15.0405250000  MEMB      81              0.0000000000
      9178        81  CHL1      C6             36.9233836745       11.5357998849       14.1362550000  MEMB      81              0.0000000000
      9179        81  CHL1      H6             36.8597111188       10.5114691148       14.5321050000  MEMB      81              0.0000000000
      9180        81  CHL1      C7             37.0277156436       11.6311654589       12.6746650000  MEMB      81              0.0000000000
      9181        81  CHL1      H7A            37.8491547839       10.9846336345       12.2984350000  MEMB      81              0.0000000000
      9182        81  CHL1      H7B            36.1072384896       11.1991485035       12.2269950000  MEMB      81              0.0000000000
      9183        81  CHL1      C8             37.2733156450       13.1252514505       12.1994250000  MEMB      81              0.0000000000
      9184        81  CHL1      H8             38.3420906409       13.4107061794       12.3022550000  MEMB      81              0.0000000000
      9185        81  CHL1      C14            36.9492602262       13.1759050277       10.6905950000  MEMB      81              0.0000000000
      9186        81  CHL1      H14            35.8494773688       13.0310425554       10.6288750000  MEMB      81              0.0000000000
      9187        81  CHL1      C15            37.7324023827       12.2443422050        9.7572050000  MEMB      81              0.0000000000
      9188        81  CHL1      H15A           38.8227651542       12.2866316839        9.9661150000  MEMB      81              0.0000000000
      9189        81  CHL1      H15B           37.3154260960       11.2148850091        9.7314950000  MEMB      81              0.0000000000
      9190        81  CHL1      C16            37.6103535864       12.9476037323        8.3920650000  MEMB      81              0.0000000000
      9191        81  CHL1      H16A           38.5946745228       13.2814185103        7.9996150000  MEMB      81              0.0000000000
      9192        81  CHL1      H16B           37.0910384679       12.3926975819        7.5816950000  MEMB      81              0.0000000000
      9193        81  CHL1      C17            36.7190827390       14.2636030000        8.6916550000  MEMB      81              0.0000000000
      9194        81  CHL1      H17            35.6412549886       14.0112992927        8.5970450000  MEMB      81              0.0000000000
      9195        81  CHL1      C13            37.0984671774       14.6569777304       10.1699450000  MEMB      81              0.0000000000
      9196        81  CHL1      C18            38.5674288317       15.1801543062       10.1414550000  MEMB      81              0.0000000000
      9197        81  CHL1      H18A           38.6888903669       16.2774576825       10.0170050000  MEMB      81              0.0000000000
      9198        81  CHL1      H18B           38.9708197753       14.9046120075       11.1392850000  MEMB      81              0.0000000000
      9199        81  CHL1      H18C           39.1746675247       14.7189540351        9.3334550000  MEMB      81              0.0000000000
      9200        81  CHL1      C12            36.2248587723       15.6044643326       10.9695050000  MEMB      81              0.0000000000
      9201        81  CHL1      H12A           36.1731506577       16.6490230891       10.5946150000  MEMB      81              0.0000000000
      9202        81  CHL1      H12B           35.2150396401       15.1721621432       10.8030550000  MEMB      81              0.0000000000
      9203        81  CHL1      C11            36.6128943549       15.5694835549       12.4175450000  MEMB      81              0.0000000000
      9204        81  CHL1      H11A           37.6048023345       16.0516907321       12.5514050000  MEMB      81              0.0000000000
      9205        81  CHL1      H11B           36.0521956509       16.2715742211       13.0710050000  MEMB      81              0.0000000000
      9206        81  CHL1      C9             36.4863741499       14.0922098708       13.0447450000  MEMB      81              0.0000000000
      9207        81  CHL1      H9             35.4087630869       13.8281976048       12.9864650000  MEMB      81              0.0000000000
      9208        81  CHL1      C10            36.7929789865       14.0136085051       14.5144850000  MEMB      81              0.0000000000
      9209        81  CHL1      C19            38.1894854288       14.8051975947       14.9029150000  MEMB      81              0.0000000000
      9210        81  CHL1      H19A           39.1007452907       14.4345692869       14.3866250000  MEMB      81              0.0000000000
      9211        81  CHL1      H19B           38.0555047280       15.8921215544       14.7159050000  MEMB      81              0.0000000000
      9212        81  CHL1      H19C           38.3366073691       14.7472298763       16.0026050000  MEMB      81              0.0000000000
      9213        81  CHL1      C1             35.6815935666       14.7342989279       15.3081950000  MEMB      81              0.0000000000
      9214        81  CHL1      H1A            35.7662943999       15.8312651166       15.1538950000  MEMB      81              0.0000000000
      9215        81  CHL1      H1B            34.7236024317       14.4313243195       14.8340950000  MEMB      81              0.0000000000
      9216        81  CHL1      C2             35.6294230430       14.6240868661       16.8613050000  MEMB      81              0.0000000000
      9217        81  CHL1      H2A            34.8951157785       15.3385835184       17.2909750000  MEMB      81              0.0000000000
      9218        81  CHL1      H2B            36.6054760050       15.0280615378       17.2054450000  MEMB      81              0.0000000000
      9219        81  CHL1      C20            36.8292392850       15.3144368011        7.5559150000  MEMB      81              0.0000000000
      9220        81  CHL1      H20            37.9033297274       15.3764451111        7.2788050000  MEMB      81              0.0000000000
      9221        81  CHL1      C21            36.4222206532       16.7064437880        7.9755050000  MEMB      81              0.0000000000
      9222        81  CHL1      H21A           36.8822075864       17.1406961153        8.8888350000  MEMB      81              0.0000000000
      9223        81  CHL1      H21B           35.3212244501       16.7769396403        8.1064950000  MEMB      81              0.0000000000
      9224        81  CHL1      H21C           36.6499243566       17.3503766680        7.0992450000  MEMB      81              0.0000000000
      9225        81  CHL1      C22            36.0669091942       14.8830416107        6.2363750000  MEMB      81              0.0000000000
      9226        81  CHL1      H22A           35.8339790647       13.8025563730        6.3487050000  MEMB      81              0.0000000000
      9227        81  CHL1      H22B           35.1443477652       15.4912221115        6.1210050000  MEMB      81              0.0000000000
      9228        81  CHL1      C23            36.7981648803       15.0144640441        4.9287650000  MEMB      81              0.0000000000
      9229        81  CHL1      H23A           36.0776759528       14.6942270744        4.1460250000  MEMB      81              0.0000000000
      9230        81  CHL1      H23B           37.1210894598       16.0525273362        4.6997050000  MEMB      81              0.0000000000
      9231        81  CHL1      C24            38.0030811819       14.1133070929        4.7879450000  MEMB      81              0.0000000000
      9232        81  CHL1      H24A           38.7021222194       14.5867688582        5.5100850000  MEMB      81              0.0000000000
      9233        81  CHL1      H24B           37.6774215743       13.1169990558        5.1562350000  MEMB      81              0.0000000000
      9234        81  CHL1      C25            38.6407577483       14.0488750855        3.3860050000  MEMB      81              0.0000000000
      9235        81  CHL1      H25            37.8819852197       13.7304858947        2.6395450000  MEMB      81              0.0000000000
      9236        81  CHL1      C26            39.2941022910       15.3351335920        2.9525350000  MEMB      81              0.0000000000
      9237        81  CHL1      H26A           40.1948194095       15.4701952481        3.5887650000  MEMB      81              0.0000000000
      9238        81  CHL1      H26B           39.5811099573       15.2947140430        1.8800150000  MEMB      81              0.0000000000
      9239        81  CHL1      H26C           38.5032810987       16.1071173923        3.0664050000  MEMB      81              0.0000000000
      9240        81  CHL1      C27            39.6726907770       12.9605194236        3.1183150000  MEMB      81              0.0000000000
      9241        81  CHL1      H27A           40.0633732144       13.1820927975        2.1021550000  MEMB      81              0.0000000000
      9242        81  CHL1      H27B           40.4204303833       12.9657533925        3.9400150000  MEMB      81              0.0000000000
      9243        81  CHL1      H27C           39.1787916291       11.9766815735        2.9685050000  MEMB      81              0.0000000000
      9244        82  OSM       N              32.7635710476      -15.5471521428       22.2864354751  MEMB      82              0.0000000000
      9245        82  OSM       C15            31.7477266821      -14.5543064547       21.7739642516  MEMB      82              0.0000000000
      9246        82  OSM       H15A           31.9399947704      -14.2052400976       20.7701785347  MEMB      82              0.0000000000
      9247        82  OSM       H15B           31.7020762685      -13.6718807189       22.3949639355  MEMB      82              0.0000000000
      9248        82  OSM       H15C           30.7948977973      -15.0612063956       21.8135808199  MEMB      82              0.0000000000
      9249        82  OSM       C14            32.5586997284      -15.6353464074       23.8066733845  MEMB      82              0.0000000000
      9250        82  OSM       H14A           32.8618508365      -16.5934555702       24.2023073539  MEMB      82              0.0000000000
      9251        82  OSM       H14B           31.4860065988      -15.5774643053       23.9179362049  MEMB      82              0.0000000000
      9252        82  OSM       H14C           33.0598301129      -14.8415488173       24.3406710466  MEMB      82              0.0000000000
      9253        82  OSM       C13            32.6333719001      -16.9129977174       21.5993637264  MEMB      82              0.0000000000
      9254        82  OSM       H13A           31.6773281468      -17.2873818265       21.9343511256  MEMB      82              0.0000000000
      9255        82  OSM       H13B           33.4765140521      -17.5476113712       21.8290962945  MEMB      82              0.0000000000
      9256        82  OSM       H13C           32.6216499187      -16.7723199544       20.5286292680  MEMB      82              0.0000000000
      9257        82  OSM       C12            34.1185974644      -15.0048004729       22.1133404076  MEMB      82              0.0000000000
      9258        82  OSM       H12A           34.6588660833      -15.7399495368       22.6913245758  MEMB      82              0.0000000000
      9259        82  OSM       H12B           34.2260284160      -14.0315392405       22.5689950269  MEMB      82              0.0000000000
      9260        82  OSM       C11            34.6532098399      -14.7979102180       20.6232041943  MEMB      82              0.0000000000
      9261        82  OSM       H11A           35.5848825499      -14.1958827725       20.5609963904  MEMB      82              0.0000000000
      9262        82  OSM       H11B           33.9448772523      -14.1424694308       20.0727650914  MEMB      82              0.0000000000
      9263        82  OSM       P              36.1032992679      -16.8239554703       19.8493575274  MEMB      82              0.0000000000
      9264        82  OSM       O13            37.1743842518      -16.0839955295       20.5239717365  MEMB      82              0.0000000000
      9265        82  OSM       O14            35.9137724436      -18.2742737078       20.1300540988  MEMB      82              0.0000000000
      9266        82  OSM       O11            36.4642766627      -16.6591996719       18.3136378168  MEMB      82              0.0000000000
      9267        82  OSM       O12            34.7468856151      -16.0619540102       19.9799973826  MEMB      82              0.0000000000
      9268        82  OSM       C1S            35.4013736792      -16.8290524185       17.3957481277  MEMB      82              0.0000000000
      9269        82  OSM       H1S            34.5999073113      -17.4370992354       17.8671838975  MEMB      82              0.0000000000
      9270        82  OSM       H1T            35.7303110639      -17.3764047630       16.4866130734  MEMB      82              0.0000000000
      9271        82  OSM       NF             34.1488408717      -15.5390432650       15.7552739194  MEMB      82              0.0000000000
      9272        82  OSM       HNF            34.5114874213      -15.0201855623       14.9850250694  MEMB      82              0.0000000000
      9273        82  OSM       C2S            34.9819669711      -15.4514318486       16.9478158101  MEMB      82              0.0000000000
      9274        82  OSM       H2S            34.3557603883      -14.9215039373       17.6970573654  MEMB      82              0.0000000000
      9275        82  OSM       C3S            36.1878429922      -14.5350098536       16.7044058219  MEMB      82              0.0000000000
      9276        82  OSM       H3S            37.1337058625      -15.0406734279       16.4146321578  MEMB      82              0.0000000000
      9277        82  OSM       O3             36.6166830333      -13.8999435028       17.9255181304  MEMB      82              0.0000000000
      9278        82  OSM       HO3            36.0399876302      -14.1280212768       18.6583231777  MEMB      82              0.0000000000
      9279        82  OSM       C4S            35.9554176464      -13.3430683288       15.6963511221  MEMB      82              0.0000000000
      9280        82  OSM       H4S            35.1720633395      -12.6482845022       16.0334439806  MEMB      82              0.0000000000
      9281        82  OSM       C5S            36.5709997721      -13.1686644121       14.5368733804  MEMB      82              0.0000000000
      9282        82  OSM       H5S            37.2252429891      -13.9416104367       14.1073155392  MEMB      82              0.0000000000
      9283        82  OSM       C6S            36.3021645119      -12.0415732108       13.6050290345  MEMB      82              0.0000000000
      9284        82  OSM       H6S            37.2898597309      -11.7380507292       13.1967972275  MEMB      82              0.0000000000
      9285        82  OSM       H6T            35.7387351777      -11.2095212772       14.0789045574  MEMB      82              0.0000000000
      9286        82  OSM       C7S            35.5619538342      -12.6228488499       12.3541815827  MEMB      82              0.0000000000
      9287        82  OSM       H7S            36.1679656230      -13.1428632163       11.5817467777  MEMB      82              0.0000000000
      9288        82  OSM       H7T            35.2850962016      -11.7026613068       11.7965749651  MEMB      82              0.0000000000
      9289        82  OSM       C8S            34.1828259057      -13.3533038358       12.6877704275  MEMB      82              0.0000000000
      9290        82  OSM       H8S            33.6270947244      -12.8417246967       13.5024914149  MEMB      82              0.0000000000
      9291        82  OSM       H8T            34.5012624888      -14.3595788031       13.0346559002  MEMB      82              0.0000000000
      9292        82  OSM       C9S            33.1437502258      -13.3809871582       11.6242395765  MEMB      82              0.0000000000
      9293        82  OSM       H9S            32.8818499106      -12.3395675725       11.3393292719  MEMB      82              0.0000000000
      9294        82  OSM       H9T            32.2270910456      -13.8757063723       12.0106455567  MEMB      82              0.0000000000
      9295        82  OSM       C10S           33.5005031879      -14.2240746558       10.4264250146  MEMB      82              0.0000000000
      9296        82  OSM       H10S           33.7083280895      -15.2269111872       10.8570621350  MEMB      82              0.0000000000
      9297        82  OSM       H10T           34.3434933430      -13.8156360638        9.8290421734  MEMB      82              0.0000000000
      9298        82  OSM       C11S           32.2715532351      -14.3570142630        9.4859579548  MEMB      82              0.0000000000
      9299        82  OSM       H11S           31.7460111926      -13.3874085786        9.3518261381  MEMB      82              0.0000000000
      9300        82  OSM       H11T           31.5694683422      -14.9799261479       10.0804148020  MEMB      82              0.0000000000
      9301        82  OSM       C12S           32.5795296321      -15.0345174643        8.1071913374  MEMB      82              0.0000000000
      9302        82  OSM       H12S           32.6162202066      -16.1263558643        8.3093382386  MEMB      82              0.0000000000
      9303        82  OSM       H12T           33.5582820472      -14.8430623144        7.6175895575  MEMB      82              0.0000000000
      9304        82  OSM       C13S           31.4190363211      -14.6764240832        7.1515509526  MEMB      82              0.0000000000
      9305        82  OSM       H13S           31.2383391871      -13.5828539464        7.2275354353  MEMB      82              0.0000000000
      9306        82  OSM       H13T           30.5417638464      -15.3236397654        7.3656217812  MEMB      82              0.0000000000
      9307        82  OSM       C14S           31.8097190403      -15.0277487225        5.6656215422  MEMB      82              0.0000000000
      9308        82  OSM       H14S           32.7374159308      -14.4888242539        5.3770736500  MEMB      82              0.0000000000
      9309        82  OSM       H14T           30.9193555865      -14.9562189967        5.0049719736  MEMB      82              0.0000000000
      9310        82  OSM       C15S           32.2862976486      -16.5272396500        5.5279818715  MEMB      82              0.0000000000
      9311        82  OSM       H15S           31.5873726053      -17.2312271192        6.0282082867  MEMB      82              0.0000000000
      9312        82  OSM       H15T           33.1338912810      -16.7000095140        6.2251594349  MEMB      82              0.0000000000
      9313        82  OSM       C16S           32.4747420370      -17.0110872845        4.1040008512  MEMB      82              0.0000000000
      9314        82  OSM       H16S           32.9480378303      -18.0093444785        4.2214522046  MEMB      82              0.0000000000
      9315        82  OSM       H16T           33.2128490028      -16.3197076970        3.6440954563  MEMB      82              0.0000000000
      9316        82  OSM       C17S           31.2464344987      -17.1661602587        3.1580988767  MEMB      82              0.0000000000
      9317        82  OSM       H17S           30.6015132574      -16.2862882878        3.3683917172  MEMB      82              0.0000000000
      9318        82  OSM       H17T           30.7293213804      -18.0644975500        3.5579798727  MEMB      82              0.0000000000
      9319        82  OSM       C18S           31.5345386780      -17.2023450541        1.6516889332  MEMB      82              0.0000000000
      9320        82  OSM       H18S           32.1128596431      -18.1264439380        1.4374305237  MEMB      82              0.0000000000
      9321        82  OSM       H18T           32.0165326019      -16.2752372885        1.2742328732  MEMB      82              0.0000000000
      9322        82  OSM       H18U           30.5360689106      -17.3026224368        1.1749053692  MEMB      82              0.0000000000
      9323        82  OSM       C1F            32.9590775560      -16.2242010594       15.7061498025  MEMB      82              0.0000000000
      9324        82  OSM       OF             32.4268059868      -16.4974564273       16.7346473401  MEMB      82              0.0000000000
      9325        82  OSM       C2F            32.3193431752      -16.4768358089       14.3239103013  MEMB      82              0.0000000000
      9326        82  OSM       H2F            33.0907716685      -16.7770135409       13.5828893585  MEMB      82              0.0000000000
      9327        82  OSM       H2G            31.7143561628      -15.5855831403       14.0519169967  MEMB      82              0.0000000000
      9328        82  OSM       C3F            31.3739210995      -17.6581490722       14.3988542606  MEMB      82              0.0000000000
      9329        82  OSM       H3F            31.0358755701      -17.6610461322       13.3405361120  MEMB      82              0.0000000000
      9330        82  OSM       H3G            30.4575162794      -17.5342932770       15.0146327646  MEMB      82              0.0000000000
      9331        82  OSM       C4F            32.0370937226      -18.9677584189       14.6224569031  MEMB      82              0.0000000000
      9332        82  OSM       H4F            31.3314250799      -19.8224365800       14.6991255187  MEMB      82              0.0000000000
      9333        82  OSM       H4G            32.5268813130      -18.9560729770       15.6195991095  MEMB      82              0.0000000000
      9334        82  OSM       C5F            33.1584294616      -19.3861058029       13.5988159093  MEMB      82              0.0000000000
      9335        82  OSM       H5F            33.5288021485      -20.4008589788       13.8584716004  MEMB      82              0.0000000000
      9336        82  OSM       H5G            33.9916376724      -18.6630528837       13.7302676955  MEMB      82              0.0000000000
      9337        82  OSM       C6F            32.6869418803      -19.3554041158       12.0812682922  MEMB      82              0.0000000000
      9338        82  OSM       H6F            32.7846686687      -18.4235476208       11.4842636046  MEMB      82              0.0000000000
      9339        82  OSM       H6G            31.6316161276      -19.7025830704       12.0725837100  MEMB      82              0.0000000000
      9340        82  OSM       C7F            33.5622972950      -20.3242250562       11.3288644708  MEMB      82              0.0000000000
      9341        82  OSM       H7F            33.1448707001      -20.5763562927       10.3306130334  MEMB      82              0.0000000000
      9342        82  OSM       H7G            33.7309239683      -21.2688946617       11.8887621218  MEMB      82              0.0000000000
      9343        82  OSM       C8F            35.0192790394      -19.8242029397       11.0777942552  MEMB      82              0.0000000000
      9344        82  OSM       H8F            35.5001563591      -20.6259926196       10.4776171816  MEMB      82              0.0000000000
      9345        82  OSM       H8G            35.4567318366      -19.7884924349       12.0984217457  MEMB      82              0.0000000000
      9346        82  OSM       C9F            35.1722668424      -18.5136618327       10.4259405425  MEMB      82              0.0000000000
      9347        82  OSM       H9F            35.0867481782      -17.6999425566       11.1611604408  MEMB      82              0.0000000000
      9348        82  OSM       C10F           35.3734114658      -18.2194759600        9.1054113601  MEMB      82              0.0000000000
      9349        82  OSM       H10F           35.4635633434      -17.1426514030        8.8996899755  MEMB      82              0.0000000000
      9350        82  OSM       C11F           35.4539645133      -19.1309532709        7.9042197864  MEMB      82              0.0000000000
      9351        82  OSM       H11F           34.7465230009      -18.8854533394        7.0835030537  MEMB      82              0.0000000000
      9352        82  OSM       H11G           35.1053761430      -20.1479639872        8.1843923492  MEMB      82              0.0000000000
      9353        82  OSM       C12F           36.8668930462      -19.1873910082        7.2114773682  MEMB      82              0.0000000000
      9354        82  OSM       H12F           36.7781388949      -19.9180415929        6.3792549398  MEMB      82              0.0000000000
      9355        82  OSM       H12G           37.6196918591      -19.5477582386        7.9447917719  MEMB      82              0.0000000000
      9356        82  OSM       C13F           37.2796345083      -17.7862148841        6.6308977715  MEMB      82              0.0000000000
      9357        82  OSM       H13F           38.2774810507      -17.9188084576        6.1607465497  MEMB      82              0.0000000000
      9358        82  OSM       H13G           37.3189449682      -17.0222306932        7.4365672775  MEMB      82              0.0000000000
      9359        82  OSM       C14F           36.3497012846      -17.2988933493        5.4089404742  MEMB      82              0.0000000000
      9360        82  OSM       H14F           35.4527118552      -16.7303738503        5.7353092069  MEMB      82              0.0000000000
      9361        82  OSM       H14G           36.1856463997      -18.2000174964        4.7801465294  MEMB      82              0.0000000000
      9362        82  OSM       C15F           37.0900615787      -16.2139045984        4.6782562708  MEMB      82              0.0000000000
      9363        82  OSM       H15F           38.0064561881      -16.6636447226        4.2397631060  MEMB      82              0.0000000000
      9364        82  OSM       H15G           37.3544265957      -15.4564375278        5.4468104944  MEMB      82              0.0000000000
      9365        82  OSM       C16F           36.3270321191      -15.6166624816        3.5126871029  MEMB      82              0.0000000000
      9366        82  OSM       H16F           36.9284577173      -14.7251789424        3.2336430027  MEMB      82              0.0000000000
      9367        82  OSM       H16G           35.3719654880      -15.1496174576        3.8352358263  MEMB      82              0.0000000000
      9368        82  OSM       C17F           36.2248254588      -16.5713919325        2.3167056406  MEMB      82              0.0000000000
      9369        82  OSM       H17F           35.3295927216      -16.3344991296        1.7028974947  MEMB      82              0.0000000000
      9370        82  OSM       H17G           36.1702166575      -17.6040935781        2.7227434763  MEMB      82              0.0000000000
      9371        82  OSM       C18F           37.3914705425      -16.5280516573        1.3030769167  MEMB      82              0.0000000000
      9372        82  OSM       H18F           38.3260993431      -16.7154278040        1.8737613460  MEMB      82              0.0000000000
      9373        82  OSM       H18G           37.2506042106      -15.5186498167        0.8608276880  MEMB      82              0.0000000000
      9374        82  OSM       H18H           37.2208407113      -17.2296970311        0.4587436019  MEMB      82              0.0000000000
      9375        83  SAPI      C12            22.8142956964      -33.1439630003       24.2317902459  MEMB      83              0.0000000000
      9376        83  SAPI      H2             23.6262226176      -33.8565281948       23.9722783878  MEMB      83              0.0000000000
      9377        83  SAPI      O2             21.6611663009      -33.9037404169       24.5339001391  MEMB      83              0.0000000000
      9378        83  SAPI      HO2            21.9000037439      -34.8151936751       24.3500259265  MEMB      83              0.0000000000
      9379        83  SAPI      C13            23.2451421896      -32.3895376417       25.4242610058  MEMB      83              0.0000000000
      9380        83  SAPI      H3             24.1231966947      -31.7535217401       25.1817222721  MEMB      83              0.0000000000
      9381        83  SAPI      O3             23.6348692345      -33.2741751353       26.4281438189  MEMB      83              0.0000000000
      9382        83  SAPI      HO3            23.1848110058      -34.1147646041       26.3165324236  MEMB      83              0.0000000000
      9383        83  SAPI      C14            22.1824991804      -31.4185593347       25.9009976622  MEMB      83              0.0000000000
      9384        83  SAPI      H4             21.2954223934      -31.9260286197       26.3367620864  MEMB      83              0.0000000000
      9385        83  SAPI      O4             22.7151173509      -30.6194047862       26.9739511108  MEMB      83              0.0000000000
      9386        83  SAPI      HO4            23.4929970626      -30.1370159564       26.6844613432  MEMB      83              0.0000000000
      9387        83  SAPI      C15            21.9121131628      -30.4806610498       24.8189818300  MEMB      83              0.0000000000
      9388        83  SAPI      H5             22.8075677850      -29.8707319679       24.5730784064  MEMB      83              0.0000000000
      9389        83  SAPI      O5             20.9759733229      -29.4719453325       25.1475762830  MEMB      83              0.0000000000
      9390        83  SAPI      HO5            21.4202507601      -28.6821049373       25.4643887050  MEMB      83              0.0000000000
      9391        83  SAPI      C16            21.4189717407      -31.2369680090       23.5663906334  MEMB      83              0.0000000000
      9392        83  SAPI      H6             20.5542425825      -31.8251888525       23.9413048191  MEMB      83              0.0000000000
      9393        83  SAPI      O6             21.0525638162      -30.3260302755       22.5335451880  MEMB      83              0.0000000000
      9394        83  SAPI      HO6            21.7869487501      -29.7334446735       22.3571335723  MEMB      83              0.0000000000
      9395        83  SAPI      C11            22.4951375092      -32.1760969817       23.1061654978  MEMB      83              0.0000000000
      9396        83  SAPI      H1             23.3438206585      -31.5258716105       22.8040646215  MEMB      83              0.0000000000
      9397        83  SAPI      P              22.7739228846      -32.9486536383       20.6841314150  MEMB      83              0.0000000000
      9398        83  SAPI      O13            23.9967633458      -33.7219329773       20.9162371244  MEMB      83              0.0000000000
      9399        83  SAPI      O14            22.8515221242      -31.5617628516       20.1262060337  MEMB      83              0.0000000000
      9400        83  SAPI      O12            21.9184158106      -32.9396398802       22.0710619756  MEMB      83              0.0000000000
      9401        83  SAPI      O11            21.8953257841      -33.8645247495       19.8006899101  MEMB      83              0.0000000000
      9402        83  SAPI      C1             20.4760577271      -33.8330290039       19.7522499026  MEMB      83              0.0000000000
      9403        83  SAPI      HA             20.0090476544      -34.3302343449       20.6291816250  MEMB      83              0.0000000000
      9404        83  SAPI      HB             20.1130566885      -32.8097850343       19.9878829554  MEMB      83              0.0000000000
      9405        83  SAPI      C2             19.9180476543      -34.1567908707       18.3502420820  MEMB      83              0.0000000000
      9406        83  SAPI      HS             20.2794597131      -35.1812092599       18.1172840916  MEMB      83              0.0000000000
      9407        83  SAPI      O21            20.4092254596      -33.1907717902       17.3997146907  MEMB      83              0.0000000000
      9408        83  SAPI      C21            21.2320908378      -33.6205567061       16.4210552529  MEMB      83              0.0000000000
      9409        83  SAPI      O22            21.5646718482      -34.7732225392       16.2422144853  MEMB      83              0.0000000000
      9410        83  SAPI      C22            21.6943100704      -32.4084100169       15.5487892160  MEMB      83              0.0000000000
      9411        83  SAPI      H2R            21.6597812093      -32.6373608651       14.4621845673  MEMB      83              0.0000000000
      9412        83  SAPI      H2S            21.1311863434      -31.4734667590       15.7563793863  MEMB      83              0.0000000000
      9413        83  SAPI      C3             18.3114814674      -33.9938124322       18.2991815346  MEMB      83              0.0000000000
      9414        83  SAPI      HX             18.0435220219      -32.9668116820       18.6274924160  MEMB      83              0.0000000000
      9415        83  SAPI      HY             17.9383698649      -34.7943707133       18.9731363817  MEMB      83              0.0000000000
      9416        83  SAPI      O31            17.7931125017      -34.2734911365       17.0215753668  MEMB      83              0.0000000000
      9417        83  SAPI      C31            17.7752727752      -35.5397508786       16.5842716923  MEMB      83              0.0000000000
      9418        83  SAPI      O32            18.2929636475      -36.4860114412       17.1290907733  MEMB      83              0.0000000000
      9419        83  SAPI      C32            16.9870986475      -35.6609449578       15.2588093432  MEMB      83              0.0000000000
      9420        83  SAPI      H2X            15.9400227340      -36.0233016514       15.3403614112  MEMB      83              0.0000000000
      9421        83  SAPI      H2Y            17.5156475410      -36.3797432152       14.5967776512  MEMB      83              0.0000000000
      9422        83  SAPI      C23            23.1785510781      -32.0435338733       15.8501562317  MEMB      83              0.0000000000
      9423        83  SAPI      H3R            23.7675893267      -32.9855058388       15.8435447250  MEMB      83              0.0000000000
      9424        83  SAPI      H3S            23.3433376772      -31.6981015098       16.8931532031  MEMB      83              0.0000000000
      9425        83  SAPI      C24            23.8215638973      -31.0487959796       14.8963641216  MEMB      83              0.0000000000
      9426        83  SAPI      H4R            24.8334883356      -30.8057710401       15.2852964063  MEMB      83              0.0000000000
      9427        83  SAPI      H4S            23.2167797826      -30.1373247716       15.0907279251  MEMB      83              0.0000000000
      9428        83  SAPI      C25            23.8667543163      -31.3294392040       13.4062690242  MEMB      83              0.0000000000
      9429        83  SAPI      H5R            24.4043811517      -32.2488663074       13.1312938313  MEMB      83              0.0000000000
      9430        83  SAPI      C26            23.1685727753      -30.6072354887       12.4446395012  MEMB      83              0.0000000000
      9431        83  SAPI      H6R            23.1202076167      -31.0909662509       11.4578949265  MEMB      83              0.0000000000
      9432        83  SAPI      C27            22.2143628583      -29.4517682146       12.6529602169  MEMB      83              0.0000000000
      9433        83  SAPI      H7R            21.8756400370      -29.1583565798       11.6363491582  MEMB      83              0.0000000000
      9434        83  SAPI      H7S            22.8187378650      -28.6536948431       13.1347590301  MEMB      83              0.0000000000
      9435        83  SAPI      C28            20.9502223651      -29.7435749755       13.4026840074  MEMB      83              0.0000000000
      9436        83  SAPI      H8R            20.7751396960      -29.2651364183       14.3775903012  MEMB      83              0.0000000000
      9437        83  SAPI      C29            19.8837933078      -30.3891463098       12.8546026699  MEMB      83              0.0000000000
      9438        83  SAPI      H9R            19.0622659801      -30.6746540885       13.5280848448  MEMB      83              0.0000000000
      9439        83  SAPI      C210           19.7864076806      -30.8884714780       11.4134566122  MEMB      83              0.0000000000
      9440        83  SAPI      H10R           18.9333392648      -31.5923053368       11.5193487841  MEMB      83              0.0000000000
      9441        83  SAPI      H10S           20.6976559444      -31.4843386971       11.1923467323  MEMB      83              0.0000000000
      9442        83  SAPI      C211           19.5790624091      -29.8571872128       10.3305977231  MEMB      83              0.0000000000
      9443        83  SAPI      H11R           20.2494122243      -28.9876548151       10.2631860255  MEMB      83              0.0000000000
      9444        83  SAPI      C212           18.7647400068      -29.9914875453        9.2813167760  MEMB      83              0.0000000000
      9445        83  SAPI      H12R           18.8173458435      -29.1499555142        8.5748778690  MEMB      83              0.0000000000
      9446        83  SAPI      C213           17.8581262449      -31.1189579234        8.8521491933  MEMB      83              0.0000000000
      9447        83  SAPI      H13R           17.1245491640      -30.7614317872        8.0982519789  MEMB      83              0.0000000000
      9448        83  SAPI      H13S           17.2499518262      -31.4989503702        9.7007069536  MEMB      83              0.0000000000
      9449        83  SAPI      C214           18.4945341036      -32.3526689949        8.2439529767  MEMB      83              0.0000000000
      9450        83  SAPI      H14R           18.0425419123      -33.2913744152        8.5968483938  MEMB      83              0.0000000000
      9451        83  SAPI      C215           19.4321610868      -32.4188709268        7.2599750871  MEMB      83              0.0000000000
      9452        83  SAPI      H15R           19.7553798859      -33.4389679974        7.0051586132  MEMB      83              0.0000000000
      9453        83  SAPI      C216           20.1239944232      -31.3361675144        6.4751597460  MEMB      83              0.0000000000
      9454        83  SAPI      H16R           21.1981998719      -31.5272234371        6.6846864687  MEMB      83              0.0000000000
      9455        83  SAPI      H16S           19.8097775880      -30.3901047357        6.9656224939  MEMB      83              0.0000000000
      9456        83  SAPI      C217           19.8992542886      -31.3904968449        4.9523721293  MEMB      83              0.0000000000
      9457        83  SAPI      H17R           19.9688744967      -32.4327917639        4.5740925418  MEMB      83              0.0000000000
      9458        83  SAPI      H17S           20.7563991298      -30.8621499185        4.4828258614  MEMB      83              0.0000000000
      9459        83  SAPI      C218           18.6851784520      -30.6095157146        4.3935648761  MEMB      83              0.0000000000
      9460        83  SAPI      H18R           18.9423985867      -29.5289419151        4.4163474833  MEMB      83              0.0000000000
      9461        83  SAPI      H18S           17.8739636077      -30.8736646413        5.1052374042  MEMB      83              0.0000000000
      9462        83  SAPI      C219           18.1642708860      -31.0617499566        3.0326613497  MEMB      83              0.0000000000
      9463        83  SAPI      H19R           17.2514509354      -30.4876609244        2.7652618919  MEMB      83              0.0000000000
      9464        83  SAPI      H19S           17.9127750048      -32.1424155684        3.0895190774  MEMB      83              0.0000000000
      9465        83  SAPI      C220           19.3000193799      -31.0803250693        1.9365501750  MEMB      83              0.0000000000
      9466        83  SAPI      H20R           20.1194695304      -31.7853283554        2.1930505004  MEMB      83              0.0000000000
      9467        83  SAPI      H20S           19.7387666026      -30.0606597654        1.8906785066  MEMB      83              0.0000000000
      9468        83  SAPI      H20T           18.7279611933      -31.3583393020        1.0256282298  MEMB      83              0.0000000000
      9469        83  SAPI      C33            16.9538377809      -34.3951944107       14.3638463450  MEMB      83              0.0000000000
      9470        83  SAPI      H3X            16.5314695992      -33.4927529595       14.8552989222  MEMB      83              0.0000000000
      9471        83  SAPI      H3Y            16.4568368879      -34.6402646804       13.4009072569  MEMB      83              0.0000000000
      9472        83  SAPI      C34            18.3394349462      -33.9735604760       13.7818063354  MEMB      83              0.0000000000
      9473        83  SAPI      H4X            19.0499028424      -33.6099896374       14.5547049259  MEMB      83              0.0000000000
      9474        83  SAPI      H4Y            18.2605253654      -33.0494171064       13.1702073077  MEMB      83              0.0000000000
      9475        83  SAPI      C35            19.0337846871      -35.0561221773       12.9013489169  MEMB      83              0.0000000000
      9476        83  SAPI      H5X            18.2826565865      -35.6251323002       12.3128289721  MEMB      83              0.0000000000
      9477        83  SAPI      H5Y            19.4948175903      -35.8464301267       13.5315736112  MEMB      83              0.0000000000
      9478        83  SAPI      C36            20.0623971371      -34.4512434197       11.9678403639  MEMB      83              0.0000000000
      9479        83  SAPI      H6X            20.6539074701      -33.8230233301       12.6676804627  MEMB      83              0.0000000000
      9480        83  SAPI      H6Y            19.4343665416      -33.7928004789       11.3303838429  MEMB      83              0.0000000000
      9481        83  SAPI      C37            20.9510588751      -35.3800287388       11.2476564374  MEMB      83              0.0000000000
      9482        83  SAPI      H7X            20.2767486766      -36.1227005496       10.7700938605  MEMB      83              0.0000000000
      9483        83  SAPI      H7Y            21.5235450588      -36.0046141486       11.9663173258  MEMB      83              0.0000000000
      9484        83  SAPI      C38            21.8616489900      -34.5383483135       10.3760009333  MEMB      83              0.0000000000
      9485        83  SAPI      H8X            22.4414239103      -33.7947950531       10.9636330942  MEMB      83              0.0000000000
      9486        83  SAPI      H8Y            21.3014685114      -33.8607746915        9.6967276571  MEMB      83              0.0000000000
      9487        83  SAPI      C39            22.8239582155      -35.3669945268        9.6315431257  MEMB      83              0.0000000000
      9488        83  SAPI      H9X            22.3655159941      -36.1371463114        8.9750236030  MEMB      83              0.0000000000
      9489        83  SAPI      H9Y            23.5621633739      -35.8332571893       10.3185463172  MEMB      83              0.0000000000
      9490        83  SAPI      C310           23.7307412189      -34.4785996573        8.7094177544  MEMB      83              0.0000000000
      9491        83  SAPI      H10X           24.2648303460      -33.7957610040        9.4042565069  MEMB      83              0.0000000000
      9492        83  SAPI      H10Y           22.9936935060      -33.8501745235        8.1652090612  MEMB      83              0.0000000000
      9493        83  SAPI      C311           24.7070223783      -35.2365371303        7.7868262167  MEMB      83              0.0000000000
      9494        83  SAPI      H11X           25.2432798799      -36.0007297050        8.3891206320  MEMB      83              0.0000000000
      9495        83  SAPI      H11Y           25.4840633155      -34.5633588805        7.3656851928  MEMB      83              0.0000000000
      9496        83  SAPI      C312           24.1052064996      -36.1481100896        6.7856134475  MEMB      83              0.0000000000
      9497        83  SAPI      H12X           23.4131921770      -36.8705344866        7.2688732378  MEMB      83              0.0000000000
      9498        83  SAPI      H12Y           24.8642911802      -36.7921920645        6.2923890294  MEMB      83              0.0000000000
      9499        83  SAPI      C313           23.3738532295      -35.5011673640        5.6101930223  MEMB      83              0.0000000000
      9500        83  SAPI      H13X           23.9767232459      -34.7637793491        5.0382416634  MEMB      83              0.0000000000
      9501        83  SAPI      H13Y           22.4746171024      -35.0643806651        6.0948710407  MEMB      83              0.0000000000
      9502        83  SAPI      C314           22.9852692257      -36.5698711517        4.5832445852  MEMB      83              0.0000000000
      9503        83  SAPI      H14X           22.7557236296      -37.5300352162        5.0928668699  MEMB      83              0.0000000000
      9504        83  SAPI      H14Y           23.7991834868      -36.8563033709        3.8833726796  MEMB      83              0.0000000000
      9505        83  SAPI      C315           21.7930158564      -36.3006730107        3.6428647895  MEMB      83              0.0000000000
      9506        83  SAPI      H15X           20.8551509873      -36.0262189975        4.1714533527  MEMB      83              0.0000000000
      9507        83  SAPI      H15Y           21.5587562531      -37.2958068131        3.2079496691  MEMB      83              0.0000000000
      9508        83  SAPI      C316           22.1024750709      -35.2724332157        2.5037377308  MEMB      83              0.0000000000
      9509        83  SAPI      H16X           22.9014761345      -35.7750714855        1.9178437231  MEMB      83              0.0000000000
      9510        83  SAPI      H16Y           22.4970551363      -34.2994844067        2.8670550547  MEMB      83              0.0000000000
      9511        83  SAPI      C317           20.9040374160      -35.2200181140        1.5253753630  MEMB      83              0.0000000000
      9512        83  SAPI      H17X           21.1523269083      -34.5049320965        0.7121560782  MEMB      83              0.0000000000
      9513        83  SAPI      H17Y           20.0837234227      -34.7418061445        2.1021930826  MEMB      83              0.0000000000
      9514        83  SAPI      C318           20.5071394364      -36.4874502225        0.8084565049  MEMB      83              0.0000000000
      9515        83  SAPI      H18X           20.0788158216      -37.2551661112        1.4877736939  MEMB      83              0.0000000000
      9516        83  SAPI      H18Y           21.3576940979      -36.9674988705        0.2788991602  MEMB      83              0.0000000000
      9517        83  SAPI      H18Z           19.6980046149      -36.2588761266        0.0822505417  MEMB      83              0.0000000000
      9518        84  SAPE      N              34.3477017091      -22.5217528905       19.3905548362  MEMB      84              0.0000000000
      9519        84  SAPE      HN1            34.5646094905      -22.0230280445       20.2770223325  MEMB      84              0.0000000000
      9520        84  SAPE      HN2            35.0921386696      -22.4705373985       18.6661305586  MEMB      84              0.0000000000
      9521        84  SAPE      HN3            33.4314516645      -22.1665415570       19.0500981035  MEMB      84              0.0000000000
      9522        84  SAPE      C12            34.0381011079      -23.8885889560       19.6775779559  MEMB      84              0.0000000000
      9523        84  SAPE      H12A           34.9737256988      -24.4200781199       19.9540682555  MEMB      84              0.0000000000
      9524        84  SAPE      H12B           33.6453790622      -24.3949035662       18.7699789562  MEMB      84              0.0000000000
      9525        84  SAPE      C11            33.1081937558      -24.0116135227       20.9416829787  MEMB      84              0.0000000000
      9526        84  SAPE      H11A           33.6640334867      -23.7680105988       21.8722854137  MEMB      84              0.0000000000
      9527        84  SAPE      H11B           32.9510233936      -25.0898135219       21.1587156486  MEMB      84              0.0000000000
      9528        84  SAPE      P              30.7298235160      -23.7944828160       20.0129238623  MEMB      84              0.0000000000
      9529        84  SAPE      O13            29.7895931183      -24.5205694521       20.9324500066  MEMB      84              0.0000000000
      9530        84  SAPE      O14            30.1236412550      -22.7731207368       19.1704971503  MEMB      84              0.0000000000
      9531        84  SAPE      O12            31.9663595553      -23.2637217320       20.8111527233  MEMB      84              0.0000000000
      9532        84  SAPE      O11            31.3466467971      -24.8293699046       19.0631604608  MEMB      84              0.0000000000
      9533        84  SAPE      C1             30.5674350985      -25.6053763985       18.1215314898  MEMB      84              0.0000000000
      9534        84  SAPE      HA             30.0422330531      -26.3881769166       18.7095001489  MEMB      84              0.0000000000
      9535        84  SAPE      HB             29.8601345421      -25.0460133890       17.4725630534  MEMB      84              0.0000000000
      9536        84  SAPE      C2             31.5282578193      -26.2631888786       17.0338839790  MEMB      84              0.0000000000
      9537        84  SAPE      HS             32.3677636209      -26.7567775442       17.5686000370  MEMB      84              0.0000000000
      9538        84  SAPE      O21            32.1455408908      -25.3651147755       16.1202224754  MEMB      84              0.0000000000
      9539        84  SAPE      C21            33.4474618560      -25.1674740719       15.9423645671  MEMB      84              0.0000000000
      9540        84  SAPE      O22            34.3767229044      -25.4457605279       16.6299921912  MEMB      84              0.0000000000
      9541        84  SAPE      C22            33.6114050640      -24.6165673343       14.5622669838  MEMB      84              0.0000000000
      9542        84  SAPE      H2R            34.5793179422      -24.0748504470       14.6255779490  MEMB      84              0.0000000000
      9543        84  SAPE      H2S            33.6491366895      -25.4371147990       13.8142034048  MEMB      84              0.0000000000
      9544        84  SAPE      C3             30.8154224552      -27.2943114348       16.1579004457  MEMB      84              0.0000000000
      9545        84  SAPE      HX             30.0706116935      -27.8548149707       16.7623947953  MEMB      84              0.0000000000
      9546        84  SAPE      HY             31.5150061254      -28.0630913075       15.7656233791  MEMB      84              0.0000000000
      9547        84  SAPE      O31            30.0256321334      -26.6262889805       15.1375857060  MEMB      84              0.0000000000
      9548        84  SAPE      C31            30.2047378356      -27.0835931213       13.9099568903  MEMB      84              0.0000000000
      9549        84  SAPE      O32            31.0360362601      -27.9526801991       13.5655845130  MEMB      84              0.0000000000
      9550        84  SAPE      C32            29.1167997487      -26.3148523565       13.1309005371  MEMB      84              0.0000000000
      9551        84  SAPE      H2X            29.1375927889      -25.2486481514       13.4425054448  MEMB      84              0.0000000000
      9552        84  SAPE      H2Y            28.1239208881      -26.7853483065       13.2956595740  MEMB      84              0.0000000000
      9553        84  SAPE      C23            32.4067239371      -23.6571186842       14.1827474595  MEMB      84              0.0000000000
      9554        84  SAPE      H3R            32.3101369847      -22.9410100313       15.0266552519  MEMB      84              0.0000000000
      9555        84  SAPE      H3S            31.5713210041      -24.3712801766       14.0202783000  MEMB      84              0.0000000000
      9556        84  SAPE      C24            32.4957814621      -22.8719543975       12.8495523853  MEMB      84              0.0000000000
      9557        84  SAPE      H4R            31.5345177817      -22.3173623851       12.7973915574  MEMB      84              0.0000000000
      9558        84  SAPE      H4S            32.4820680593      -23.5365909655       11.9593891389  MEMB      84              0.0000000000
      9559        84  SAPE      C25            33.7396984277      -21.9196393199       12.7380961658  MEMB      84              0.0000000000
      9560        84  SAPE      H5R            33.5889168127      -20.8477752555       12.9339844959  MEMB      84              0.0000000000
      9561        84  SAPE      C26            34.9083171721      -22.2600227239       12.2122722983  MEMB      84              0.0000000000
      9562        84  SAPE      H6R            35.6035865598      -21.4145291103       12.1039161986  MEMB      84              0.0000000000
      9563        84  SAPE      C27            35.3155446393      -23.6365272855       11.5849582455  MEMB      84              0.0000000000
      9564        84  SAPE      H7R            34.4958669513      -24.3543584736       11.8021406447  MEMB      84              0.0000000000
      9565        84  SAPE      H7S            36.1830862134      -24.1206125679       12.0823053433  MEMB      84              0.0000000000
      9566        84  SAPE      C28            35.6034623186      -23.3487175354       10.1290020744  MEMB      84              0.0000000000
      9567        84  SAPE      H8R            36.3342364890      -22.5669862658        9.8743162055  MEMB      84              0.0000000000
      9568        84  SAPE      C29            35.0183168511      -23.9812931963        9.1220530979  MEMB      84              0.0000000000
      9569        84  SAPE      H9R            35.3144466513      -23.7188651074        8.0956818783  MEMB      84              0.0000000000
      9570        84  SAPE      C210           33.9816127654      -25.0580173420        9.2009742766  MEMB      84              0.0000000000
      9571        84  SAPE      H10R           33.0917227970      -24.5505039993        9.6309129624  MEMB      84              0.0000000000
      9572        84  SAPE      H10S           34.2956263227      -25.9069894938        9.8451506727  MEMB      84              0.0000000000
      9573        84  SAPE      C211           33.6746731828      -25.5628594718        7.8105342854  MEMB      84              0.0000000000
      9574        84  SAPE      H11R           34.5511215635      -25.4291086374        7.1594216957  MEMB      84              0.0000000000
      9575        84  SAPE      C212           32.5652966406      -26.0798360630        7.3416853883  MEMB      84              0.0000000000
      9576        84  SAPE      H12R           32.5863544675      -26.4536615861        6.3073689878  MEMB      84              0.0000000000
      9577        84  SAPE      C213           31.3113676661      -26.2227087906        8.1686100906  MEMB      84              0.0000000000
      9578        84  SAPE      H13R           30.8349801021      -25.2200349211        8.1236539766  MEMB      84              0.0000000000
      9579        84  SAPE      H13S           31.6369939869      -26.4864724831        9.1975502282  MEMB      84              0.0000000000
      9580        84  SAPE      C214           30.3887472272      -27.3249336574        7.8328493217  MEMB      84              0.0000000000
      9581        84  SAPE      H14R           30.7456962629      -28.3019985665        8.1905248582  MEMB      84              0.0000000000
      9582        84  SAPE      C215           29.2622724954      -27.1452262209        7.0788049498  MEMB      84              0.0000000000
      9583        84  SAPE      H15R           28.6575474086      -28.0616575525        7.0120119834  MEMB      84              0.0000000000
      9584        84  SAPE      C216           28.7634356468      -25.8107132366        6.4723754796  MEMB      84              0.0000000000
      9585        84  SAPE      H16R           29.3537910966      -24.9191235819        6.7738199870  MEMB      84              0.0000000000
      9586        84  SAPE      H16S           27.7395166127      -25.5434753603        6.8107462476  MEMB      84              0.0000000000
      9587        84  SAPE      C217           28.7693026397      -25.7770741204        4.9336729791  MEMB      84              0.0000000000
      9588        84  SAPE      H17R           28.3695051708      -24.8231359353        4.5281055210  MEMB      84              0.0000000000
      9589        84  SAPE      H17S           28.1418045903      -26.6529342020        4.6626812198  MEMB      84              0.0000000000
      9590        84  SAPE      C218           30.1735962672      -25.7667221136        4.2667584312  MEMB      84              0.0000000000
      9591        84  SAPE      H18R           30.9593021590      -26.1902113356        4.9283051500  MEMB      84              0.0000000000
      9592        84  SAPE      H18S           30.3864997382      -24.7104660391        3.9959887924  MEMB      84              0.0000000000
      9593        84  SAPE      C219           30.3096995976      -26.6095698503        2.9763215734  MEMB      84              0.0000000000
      9594        84  SAPE      H19R           30.3285845619      -27.6996571949        3.1900361040  MEMB      84              0.0000000000
      9595        84  SAPE      H19S           31.3194590538      -26.3592109581        2.5864145396  MEMB      84              0.0000000000
      9596        84  SAPE      C220           29.2168728142      -26.3792386785        2.0002491811  MEMB      84              0.0000000000
      9597        84  SAPE      H20R           29.0352358912      -25.2834719995        1.9752675620  MEMB      84              0.0000000000
      9598        84  SAPE      H20S           28.3111810458      -26.8363232382        2.4531467031  MEMB      84              0.0000000000
      9599        84  SAPE      H20T           29.4858119331      -26.8665988656        1.0387534593  MEMB      84              0.0000000000
      9600        84  SAPE      C33            29.3089609813      -26.3981347800       11.5841332119  MEMB      84              0.0000000000
      9601        84  SAPE      H3X            29.4755170154      -27.4592412322       11.3001731790  MEMB      84              0.0000000000
      9602        84  SAPE      H3Y            30.2343506532      -25.8425140236       11.3209592831  MEMB      84              0.0000000000
      9603        84  SAPE      C34            28.1598953899      -25.8647330921       10.6926969767  MEMB      84              0.0000000000
      9604        84  SAPE      H4X            27.2684433047      -26.4071637718       11.0740149114  MEMB      84              0.0000000000
      9605        84  SAPE      H4Y            28.3597287873      -26.2737174979        9.6792286072  MEMB      84              0.0000000000
      9606        84  SAPE      C35            27.9515507536      -24.3894606202       10.7040153862  MEMB      84              0.0000000000
      9607        84  SAPE      H5X            27.6701500531      -24.0614072533       11.7274977324  MEMB      84              0.0000000000
      9608        84  SAPE      H5Y            27.0958681295      -24.2356869772       10.0122914368  MEMB      84              0.0000000000
      9609        84  SAPE      C36            29.2212749892      -23.6448857141       10.1300718216  MEMB      84              0.0000000000
      9610        84  SAPE      H6X            29.4628103810      -24.2063252530        9.2022963496  MEMB      84              0.0000000000
      9611        84  SAPE      H6Y            30.0172042995      -23.5534003922       10.8997786763  MEMB      84              0.0000000000
      9612        84  SAPE      C37            28.9287996461      -22.2082044605        9.6144840454  MEMB      84              0.0000000000
      9613        84  SAPE      H7X            28.9271570563      -21.6357944793       10.5666731289  MEMB      84              0.0000000000
      9614        84  SAPE      H7Y            27.9802482109      -22.0775746514        9.0510060583  MEMB      84              0.0000000000
      9615        84  SAPE      C38            30.1199841164      -21.6348518033        8.8378476897  MEMB      84              0.0000000000
      9616        84  SAPE      H8X            29.8941933238      -20.5823152700        8.5630638472  MEMB      84              0.0000000000
      9617        84  SAPE      H8Y            30.2627680770      -22.3128996370        7.9694105363  MEMB      84              0.0000000000
      9618        84  SAPE      C39            31.5348009746      -21.6101123598        9.5090250839  MEMB      84              0.0000000000
      9619        84  SAPE      H9X            31.8761802654      -22.6526499993        9.6847985780  MEMB      84              0.0000000000
      9620        84  SAPE      H9Y            31.5220661659      -21.0897395471       10.4905399138  MEMB      84              0.0000000000
      9621        84  SAPE      C310           32.6122328157      -21.0276615046        8.6076255349  MEMB      84              0.0000000000
      9622        84  SAPE      H10X           33.6519068487      -21.1398320965        8.9828815202  MEMB      84              0.0000000000
      9623        84  SAPE      H10Y           32.4200851471      -19.9601548669        8.3671479273  MEMB      84              0.0000000000
      9624        84  SAPE      C311           32.5630414647      -21.6334951608        7.2011247833  MEMB      84              0.0000000000
      9625        84  SAPE      H11X           31.7138636132      -21.2531411115        6.5940419274  MEMB      84              0.0000000000
      9626        84  SAPE      H11Y           32.3980497566      -22.7320411457        7.1839328670  MEMB      84              0.0000000000
      9627        84  SAPE      C312           33.7414854727      -21.3741122549        6.3296347867  MEMB      84              0.0000000000
      9628        84  SAPE      H12X           34.6307046823      -21.2518327755        6.9843545206  MEMB      84              0.0000000000
      9629        84  SAPE      H12Y           33.5225758728      -20.4681601791        5.7249443387  MEMB      84              0.0000000000
      9630        84  SAPE      C313           33.8956010314      -22.4859256148        5.1666511744  MEMB      84              0.0000000000
      9631        84  SAPE      H13X           32.9773092437      -22.4949240074        4.5413670188  MEMB      84              0.0000000000
      9632        84  SAPE      H13Y           33.9615979484      -23.4523783359        5.7106501063  MEMB      84              0.0000000000
      9633        84  SAPE      C314           35.1031272152      -22.2708796842        4.1753453778  MEMB      84              0.0000000000
      9634        84  SAPE      H14X           36.0348103150      -22.0457843684        4.7371453634  MEMB      84              0.0000000000
      9635        84  SAPE      H14Y           35.0034685739      -21.3518618872        3.5590697024  MEMB      84              0.0000000000
      9636        84  SAPE      C315           35.1088725573      -23.4502524503        3.1738279742  MEMB      84              0.0000000000
      9637        84  SAPE      H15X           34.8656950801      -24.3921284000        3.7105361073  MEMB      84              0.0000000000
      9638        84  SAPE      H15Y           36.0726467932      -23.3350041665        2.6332938651  MEMB      84              0.0000000000
      9639        84  SAPE      C316           34.1264552992      -23.3526232191        2.0383200556  MEMB      84              0.0000000000
      9640        84  SAPE      H16X           34.3175760427      -22.4821510287        1.3749419007  MEMB      84              0.0000000000
      9641        84  SAPE      H16Y           33.1165043359      -23.2013064363        2.4758395700  MEMB      84              0.0000000000
      9642        84  SAPE      C317           34.0319044463      -24.6554669489        1.1501342993  MEMB      84              0.0000000000
      9643        84  SAPE      H17X           33.1329811951      -24.5728378615        0.5024994447  MEMB      84              0.0000000000
      9644        84  SAPE      H17Y           33.8582819192      -25.5405656775        1.7988070606  MEMB      84              0.0000000000
      9645        84  SAPE      C318           35.2865597097      -24.8744372212        0.2697156944  MEMB      84              0.0000000000
      9646        84  SAPE      H18X           34.9364638353      -25.6312314441       -0.4644618366  MEMB      84              0.0000000000
      9647        84  SAPE      H18Y           36.1786577724      -25.1556907527        0.8691973171  MEMB      84              0.0000000000
      9648        84  SAPE      H18Z           35.5375079292      -23.8984409896       -0.1980203535  MEMB      84              0.0000000000
      9649        85  SAPE      N             -28.3850844678      -32.2857875176       20.5602435539  MEMB      85              0.0000000000
      9650        85  SAPE      HN1           -28.8427992382      -32.1511317118       19.6361413373  MEMB      85              0.0000000000
      9651        85  SAPE      HN2           -27.4438547548      -32.7094748054       20.4330599067  MEMB      85              0.0000000000
      9652        85  SAPE      HN3           -29.0588541347      -32.8044561087       21.1590897267  MEMB      85              0.0000000000
      9653        85  SAPE      C12           -28.1073977986      -30.9102334674       21.0025459465  MEMB      85              0.0000000000
      9654        85  SAPE      H12A          -27.7087550257      -30.8389946394       22.0371134517  MEMB      85              0.0000000000
      9655        85  SAPE      H12B          -29.0437821782      -30.3259851206       21.1296643067  MEMB      85              0.0000000000
      9656        85  SAPE      C11           -27.2449346699      -30.1262514366       19.9933352072  MEMB      85              0.0000000000
      9657        85  SAPE      H11A          -27.9055969677      -30.0558256310       19.1028934075  MEMB      85              0.0000000000
      9658        85  SAPE      H11B          -26.3137279034      -30.6627717070       19.7116951950  MEMB      85              0.0000000000
      9659        85  SAPE      P             -26.8426391740      -27.4802722255       19.7142790471  MEMB      85              0.0000000000
      9660        85  SAPE      O13           -28.2354422521      -26.9327860561       19.6767463788  MEMB      85              0.0000000000
      9661        85  SAPE      O14           -25.6853897574      -26.7023917147       20.2758935929  MEMB      85              0.0000000000
      9662        85  SAPE      O12           -26.9317331279      -28.8568637486       20.5424517362  MEMB      85              0.0000000000
      9663        85  SAPE      O11           -26.4674408864      -27.9828103578       18.2345045375  MEMB      85              0.0000000000
      9664        85  SAPE      C1            -25.1663524181      -28.5272383867       18.0674589315  MEMB      85              0.0000000000
      9665        85  SAPE      HA            -24.3600514363      -27.7658497935       18.1344452537  MEMB      85              0.0000000000
      9666        85  SAPE      HB            -24.9385096691      -29.2374809141       18.8908447889  MEMB      85              0.0000000000
      9667        85  SAPE      C2            -25.0375482170      -29.3891773239       16.7843836110  MEMB      85              0.0000000000
      9668        85  SAPE      HS            -24.0101425873      -29.7943422305       16.6635519185  MEMB      85              0.0000000000
      9669        85  SAPE      O21           -25.4713049101      -28.6239668153       15.6631201761  MEMB      85              0.0000000000
      9670        85  SAPE      C21           -24.6374812924      -27.6190098549       15.3048310216  MEMB      85              0.0000000000
      9671        85  SAPE      O22           -23.5623477206      -27.4420258348       15.9149704805  MEMB      85              0.0000000000
      9672        85  SAPE      C22           -25.3080995385      -26.7825594507       14.1219640254  MEMB      85              0.0000000000
      9673        85  SAPE      H2R           -26.3320462763      -26.5476800950       14.4834688680  MEMB      85              0.0000000000
      9674        85  SAPE      H2S           -24.7872106364      -25.8028137828       14.0663384316  MEMB      85              0.0000000000
      9675        85  SAPE      C3            -25.9507031624      -30.5738087762       16.8470776212  MEMB      85              0.0000000000
      9676        85  SAPE      HX            -27.0110204143      -30.2425205632       16.8642910843  MEMB      85              0.0000000000
      9677        85  SAPE      HY            -25.8338219430      -31.2439833173       17.7254430667  MEMB      85              0.0000000000
      9678        85  SAPE      O31           -25.7871614625      -31.4122594629       15.7008818187  MEMB      85              0.0000000000
      9679        85  SAPE      C31           -24.7001897705      -32.1656856143       15.7138678345  MEMB      85              0.0000000000
      9680        85  SAPE      O32           -23.9897739374      -32.3901288557       16.6576618897  MEMB      85              0.0000000000
      9681        85  SAPE      C32           -24.3861822490      -32.6460155956       14.2872345589  MEMB      85              0.0000000000
      9682        85  SAPE      H2X           -25.2415044615      -33.0325023854       13.6927829959  MEMB      85              0.0000000000
      9683        85  SAPE      H2Y           -23.6285576745      -33.4500105532       14.4052093980  MEMB      85              0.0000000000
      9684        85  SAPE      C23           -25.2246720010      -27.4055931155       12.7559245072  MEMB      85              0.0000000000
      9685        85  SAPE      H3R           -24.8569147791      -28.4451394078       12.8916413698  MEMB      85              0.0000000000
      9686        85  SAPE      H3S           -24.3183405383      -26.9646620098       12.2885226175  MEMB      85              0.0000000000
      9687        85  SAPE      C24           -26.4405519384      -27.3383740768       11.9436327947  MEMB      85              0.0000000000
      9688        85  SAPE      H4R           -25.9961263099      -27.4845231872       10.9359386086  MEMB      85              0.0000000000
      9689        85  SAPE      H4S           -26.8138629897      -26.2925846083       11.9077971792  MEMB      85              0.0000000000
      9690        85  SAPE      C25           -27.5474574038      -28.2672358414       12.2029902914  MEMB      85              0.0000000000
      9691        85  SAPE      H5R           -27.6010667957      -28.8528279886       13.1326182803  MEMB      85              0.0000000000
      9692        85  SAPE      C26           -28.4254152862      -28.7115526791       11.3085382668  MEMB      85              0.0000000000
      9693        85  SAPE      H6R           -29.2808295258      -29.3027366531       11.6673806499  MEMB      85              0.0000000000
      9694        85  SAPE      C27           -28.3867446536      -28.2041003011        9.9333459489  MEMB      85              0.0000000000
      9695        85  SAPE      H7R           -28.1402327501      -27.1208391847        9.9234370741  MEMB      85              0.0000000000
      9696        85  SAPE      H7S           -29.4569797407      -28.1957873669        9.6352710738  MEMB      85              0.0000000000
      9697        85  SAPE      C28           -27.4742817590      -28.9472027079        8.9344710958  MEMB      85              0.0000000000
      9698        85  SAPE      H8R           -26.3882986505      -28.8720372612        9.0925558623  MEMB      85              0.0000000000
      9699        85  SAPE      C29           -27.8862480325      -29.5974983304        7.8504879453  MEMB      85              0.0000000000
      9700        85  SAPE      H9R           -27.1176405667      -29.9595694599        7.1518122524  MEMB      85              0.0000000000
      9701        85  SAPE      C210          -29.2785246248      -29.8073814661        7.2998976915  MEMB      85              0.0000000000
      9702        85  SAPE      H10R          -30.0247955412      -29.2059374940        7.8617388633  MEMB      85              0.0000000000
      9703        85  SAPE      H10S          -29.6779224466      -30.8406487693        7.3845216661  MEMB      85              0.0000000000
      9704        85  SAPE      C211          -29.3717953036      -29.5164300421        5.8129896021  MEMB      85              0.0000000000
      9705        85  SAPE      H11R          -29.2627293299      -28.4983863982        5.4108803695  MEMB      85              0.0000000000
      9706        85  SAPE      C212          -29.6106260385      -30.3929899431        4.8197596280  MEMB      85              0.0000000000
      9707        85  SAPE      H12R          -29.5743681188      -30.0100715471        3.7891967508  MEMB      85              0.0000000000
      9708        85  SAPE      C213          -29.8842708969      -31.8309853838        4.6602314402  MEMB      85              0.0000000000
      9709        85  SAPE      H13R          -30.9413044703      -32.0579314595        4.9161539357  MEMB      85              0.0000000000
      9710        85  SAPE      H13S          -29.3409154800      -32.3868378804        5.4540284363  MEMB      85              0.0000000000
      9711        85  SAPE      C214          -29.5113694754      -32.5514191791        3.3349345644  MEMB      85              0.0000000000
      9712        85  SAPE      H14R          -30.3437082876      -32.9796345892        2.7571424306  MEMB      85              0.0000000000
      9713        85  SAPE      C215          -28.2856073086      -32.6687940700        2.8442670449  MEMB      85              0.0000000000
      9714        85  SAPE      H15R          -28.0958876751      -33.2772799300        1.9477464183  MEMB      85              0.0000000000
      9715        85  SAPE      C216          -26.9975712332      -32.1471848826        3.5230455209  MEMB      85              0.0000000000
      9716        85  SAPE      H16R          -26.3799376998      -32.9993610457        3.8789173971  MEMB      85              0.0000000000
      9717        85  SAPE      H16S          -27.2239933355      -31.5265800361        4.4162990817  MEMB      85              0.0000000000
      9718        85  SAPE      C217          -26.1851250830      -31.4165553237        2.5354805929  MEMB      85              0.0000000000
      9719        85  SAPE      H17R          -25.4589691105      -30.7981834523        3.1052485504  MEMB      85              0.0000000000
      9720        85  SAPE      H17S          -26.8311679624      -30.6862807833        2.0028944113  MEMB      85              0.0000000000
      9721        85  SAPE      C218          -25.3256052081      -32.3066531693        1.6169520114  MEMB      85              0.0000000000
      9722        85  SAPE      H18R          -25.8841812823      -33.2374191204        1.3803321400  MEMB      85              0.0000000000
      9723        85  SAPE      H18S          -24.4330795300      -32.6156748217        2.2019524510  MEMB      85              0.0000000000
      9724        85  SAPE      C219          -24.8808604358      -31.6082315981        0.3250224605  MEMB      85              0.0000000000
      9725        85  SAPE      H19R          -25.7964498158      -31.2759841091       -0.2094194281  MEMB      85              0.0000000000
      9726        85  SAPE      H19S          -24.2688258710      -32.3648920264       -0.2108884975  MEMB      85              0.0000000000
      9727        85  SAPE      C220          -23.9798961035      -30.3940695422        0.6793569429  MEMB      85              0.0000000000
      9728        85  SAPE      H20R          -24.6049969539      -29.5601075307        1.0641668102  MEMB      85              0.0000000000
      9729        85  SAPE      H20S          -23.3336740116      -30.1092589470       -0.1783152077  MEMB      85              0.0000000000
      9730        85  SAPE      H20T          -23.3165905029      -30.6721986050        1.5261101371  MEMB      85              0.0000000000
      9731        85  SAPE      C33           -23.5834444465      -31.6149021809       13.3795035739  MEMB      85              0.0000000000
      9732        85  SAPE      H3X           -22.6816381267      -31.2204494326       13.8947446641  MEMB      85              0.0000000000
      9733        85  SAPE      H3Y           -24.3127492420      -30.7884342648       13.2402676707  MEMB      85              0.0000000000
      9734        85  SAPE      C34           -23.3963589844      -32.0958442662       11.9040323478  MEMB      85              0.0000000000
      9735        85  SAPE      H4X           -24.3789662433      -32.1296474249       11.3866725419  MEMB      85              0.0000000000
      9736        85  SAPE      H4Y           -22.8291127633      -33.0511201833       11.9030489120  MEMB      85              0.0000000000
      9737        85  SAPE      C35           -22.6526410195      -30.9764402276       11.1648321498  MEMB      85              0.0000000000
      9738        85  SAPE      H5X           -22.1030545616      -31.5309006593       10.3743583594  MEMB      85              0.0000000000
      9739        85  SAPE      H5Y           -21.8039890648      -30.5238590939       11.7209633921  MEMB      85              0.0000000000
      9740        85  SAPE      C36           -23.6049521776      -29.9941403484       10.4552503365  MEMB      85              0.0000000000
      9741        85  SAPE      H6X           -23.7843349123      -29.1625887521       11.1698585559  MEMB      85              0.0000000000
      9742        85  SAPE      H6Y           -24.6146762351      -30.4376309047       10.3207347465  MEMB      85              0.0000000000
      9743        85  SAPE      C37           -23.1284787373      -29.5037263253        9.1603786915  MEMB      85              0.0000000000
      9744        85  SAPE      H7X           -22.0409277267      -29.2995602249        9.0610317453  MEMB      85              0.0000000000
      9745        85  SAPE      H7Y           -23.5659545258      -28.4908058710        9.0302709425  MEMB      85              0.0000000000
      9746        85  SAPE      C38           -23.7129449043      -30.2714774268        7.8842914085  MEMB      85              0.0000000000
      9747        85  SAPE      H8X           -24.8182732025      -30.1833254411        7.9535727372  MEMB      85              0.0000000000
      9748        85  SAPE      H8Y           -23.3892308425      -31.3321784902        7.8176332275  MEMB      85              0.0000000000
      9749        85  SAPE      C39           -23.4250069922      -29.7386057235        6.4629580195  MEMB      85              0.0000000000
      9750        85  SAPE      H9X           -23.6530118525      -30.3567233000        5.5683819043  MEMB      85              0.0000000000
      9751        85  SAPE      H9Y           -22.3179237617      -29.6659750734        6.4045434940  MEMB      85              0.0000000000
      9752        85  SAPE      C310          -23.9766933269      -28.3178448901        6.2132541139  MEMB      85              0.0000000000
      9753        85  SAPE      H10X          -23.5795899510      -27.5783372717        6.9410980992  MEMB      85              0.0000000000
      9754        85  SAPE      H10Y          -25.0875510949      -28.3123250715        6.2301620267  MEMB      85              0.0000000000
      9755        85  SAPE      C311          -23.8434089282      -27.9164812796        4.7154315860  MEMB      85              0.0000000000
      9756        85  SAPE      H11X          -24.2775496361      -28.6209161110        3.9740709450  MEMB      85              0.0000000000
      9757        85  SAPE      H11Y          -22.7682511994      -27.8973933235        4.4361606804  MEMB      85              0.0000000000
      9758        85  SAPE      C312          -24.3927810179      -26.4907263376        4.5026117926  MEMB      85              0.0000000000
      9759        85  SAPE      H12X          -23.5524822202      -25.7686297037        4.4201738258  MEMB      85              0.0000000000
      9760        85  SAPE      H12Y          -24.8591311884      -26.1474331800        5.4507609410  MEMB      85              0.0000000000
      9761        85  SAPE      C313          -25.3891627216      -26.2460656707        3.4472677067  MEMB      85              0.0000000000
      9762        85  SAPE      H13X          -24.8684615796      -26.4498302680        2.4872306990  MEMB      85              0.0000000000
      9763        85  SAPE      H13Y          -25.7786164887      -25.2122703578        3.3293111400  MEMB      85              0.0000000000
      9764        85  SAPE      C314          -26.5512402441      -27.2316462272        3.6445415729  MEMB      85              0.0000000000
      9765        85  SAPE      H14X          -26.8248707786      -27.2298598053        4.7213171669  MEMB      85              0.0000000000
      9766        85  SAPE      H14Y          -26.2447978446      -28.2480580898        3.3169424878  MEMB      85              0.0000000000
      9767        85  SAPE      C315          -27.8141704229      -26.8639512938        2.8556705624  MEMB      85              0.0000000000
      9768        85  SAPE      H15X          -28.1209561316      -25.8463705656        3.1792941260  MEMB      85              0.0000000000
      9769        85  SAPE      H15Y          -28.5447165978      -27.6626972435        3.1059265486  MEMB      85              0.0000000000
      9770        85  SAPE      C316          -27.5992228325      -26.9934683055        1.3356357992  MEMB      85              0.0000000000
      9771        85  SAPE      H16X          -26.7803156597      -26.2811020514        1.0984714311  MEMB      85              0.0000000000
      9772        85  SAPE      H16Y          -28.4398855095      -26.4603316013        0.8423078470  MEMB      85              0.0000000000
      9773        85  SAPE      C317          -27.4685012404      -28.4007904835        0.7837451604  MEMB      85              0.0000000000
      9774        85  SAPE      H17X          -28.1635317270      -29.0945899281        1.3032606765  MEMB      85              0.0000000000
      9775        85  SAPE      H17Y          -26.4611722690      -28.8538031258        0.9036995083  MEMB      85              0.0000000000
      9776        85  SAPE      C318          -27.8096305026      -28.6076782687       -0.6645661092  MEMB      85              0.0000000000
      9777        85  SAPE      H18X          -27.8881235790      -29.6710642724       -0.9766084316  MEMB      85              0.0000000000
      9778        85  SAPE      H18Y          -27.2848154631      -28.0550366163       -1.4729458458  MEMB      85              0.0000000000
      9779        85  SAPE      H18Z          -28.8688305551      -28.2826647559       -0.7469229340  MEMB      85              0.0000000000
      9780        86  CHL1      C3            -33.0611493352      -22.6481602084       17.3357150000  MEMB      86              0.0000000000
      9781        86  CHL1      H3            -33.0815650212      -23.7542627469       17.2334550000  MEMB      86              0.0000000000
      9782        86  CHL1      O3            -33.3145982648      -22.2260213916       18.6642850000  MEMB      86              0.0000000000
      9783        86  CHL1      H3'           -34.2585665332      -22.3856517146       18.7352150000  MEMB      86              0.0000000000
      9784        86  CHL1      C4            -31.6355955339      -22.3545738247       16.9987450000  MEMB      86              0.0000000000
      9785        86  CHL1      H4A           -31.4031578283      -21.2862476942       17.1961550000  MEMB      86              0.0000000000
      9786        86  CHL1      H4B           -31.0398583094      -22.9607149963       17.7142950000  MEMB      86              0.0000000000
      9787        86  CHL1      C5            -31.3573066371      -22.7782831931       15.5619750000  MEMB      86              0.0000000000
      9788        86  CHL1      C6            -30.3464040974      -23.6638275994       15.1777650000  MEMB      86              0.0000000000
      9789        86  CHL1      H6            -29.7004398211      -24.1564868527       15.9193950000  MEMB      86              0.0000000000
      9790        86  CHL1      C7            -29.9426323278      -24.0454509674       13.8058550000  MEMB      86              0.0000000000
      9791        86  CHL1      H7A           -28.8589491268      -24.1419870469       13.5808250000  MEMB      86              0.0000000000
      9792        86  CHL1      H7B           -30.2495694765      -25.1034360930       13.6617150000  MEMB      86              0.0000000000
      9793        86  CHL1      C8            -30.7190618915      -23.1717624471       12.7243650000  MEMB      86              0.0000000000
      9794        86  CHL1      H8            -30.2305005529      -22.1742350534       12.7006450000  MEMB      86              0.0000000000
      9795        86  CHL1      C14           -30.6933818384      -23.8682500291       11.3649850000  MEMB      86              0.0000000000
      9796        86  CHL1      H14           -31.2125285179      -24.8346697949       11.5405950000  MEMB      86              0.0000000000
      9797        86  CHL1      C15           -29.3916781479      -24.1920456218       10.6595850000  MEMB      86              0.0000000000
      9798        86  CHL1      H15A          -28.6705106459      -23.3689942758       10.8514550000  MEMB      86              0.0000000000
      9799        86  CHL1      H15B          -29.0585224507      -25.1878721054       11.0224450000  MEMB      86              0.0000000000
      9800        86  CHL1      C16           -29.7532736839      -24.2731289349        9.1470350000  MEMB      86              0.0000000000
      9801        86  CHL1      H16A          -29.2449840083      -23.5309146072        8.4950450000  MEMB      86              0.0000000000
      9802        86  CHL1      H16B          -29.6536642413      -25.2936694667        8.7193850000  MEMB      86              0.0000000000
      9803        86  CHL1      C17           -31.2385737147      -23.8728882678        9.0712850000  MEMB      86              0.0000000000
      9804        86  CHL1      H17           -31.8173286091      -24.8192431085        9.1326950000  MEMB      86              0.0000000000
      9805        86  CHL1      C13           -31.5295753184      -23.0607937254       10.3730950000  MEMB      86              0.0000000000
      9806        86  CHL1      C18           -30.9486259855      -21.6652697792       10.1135350000  MEMB      86              0.0000000000
      9807        86  CHL1      H18A          -31.3883927899      -21.1858208365        9.2129550000  MEMB      86              0.0000000000
      9808        86  CHL1      H18B          -31.2164857505      -20.9309180390       10.9030350000  MEMB      86              0.0000000000
      9809        86  CHL1      H18C          -29.8696020619      -21.8328136444        9.9086650000  MEMB      86              0.0000000000
      9810        86  CHL1      C12           -33.0048491005      -23.0202953233       10.8316850000  MEMB      86              0.0000000000
      9811        86  CHL1      H12A          -33.5879716863      -22.5136628117       10.0331850000  MEMB      86              0.0000000000
      9812        86  CHL1      H12B          -33.4160523376      -24.0506783078       10.8912450000  MEMB      86              0.0000000000
      9813        86  CHL1      C11           -33.1086218172      -22.2799105511       12.1316350000  MEMB      86              0.0000000000
      9814        86  CHL1      H11A          -32.9403655705      -21.2195956390       11.8457450000  MEMB      86              0.0000000000
      9815        86  CHL1      H11B          -34.1660283014      -22.2325067122       12.4692050000  MEMB      86              0.0000000000
      9816        86  CHL1      C9            -32.1512897051      -22.9206986424       13.2317550000  MEMB      86              0.0000000000
      9817        86  CHL1      H9            -32.5494329435      -23.9398244100       13.4246050000  MEMB      86              0.0000000000
      9818        86  CHL1      C10           -32.3690044046      -22.1837012833       14.5220250000  MEMB      86              0.0000000000
      9819        86  CHL1      C19           -32.0431030594      -20.6466405944       14.3900050000  MEMB      86              0.0000000000
      9820        86  CHL1      H19A          -31.0607886502      -20.2960932917       14.0072750000  MEMB      86              0.0000000000
      9821        86  CHL1      H19B          -32.8775385505      -20.1348416871       13.8645650000  MEMB      86              0.0000000000
      9822        86  CHL1      H19C          -32.0897561796      -20.2408769725       15.4232050000  MEMB      86              0.0000000000
      9823        86  CHL1      C1            -33.8480296539      -22.4068761740       15.0083750000  MEMB      86              0.0000000000
      9824        86  CHL1      H1A           -34.5758199853      -21.8207833935       14.4074350000  MEMB      86              0.0000000000
      9825        86  CHL1      H1B           -33.9799811629      -23.5033584473       14.8873650000  MEMB      86              0.0000000000
      9826        86  CHL1      C2            -34.0361266865      -22.0068455922       16.3663750000  MEMB      86              0.0000000000
      9827        86  CHL1      H2A           -35.0381217660      -22.3045724745       16.7427750000  MEMB      86              0.0000000000
      9828        86  CHL1      H2B           -33.8448113801      -20.9139025349       16.4229950000  MEMB      86              0.0000000000
      9829        86  CHL1      C20           -31.5740662274      -23.3051387720        7.6355050000  MEMB      86              0.0000000000
      9830        86  CHL1      H20           -30.8818540261      -22.4748298603        7.3790950000  MEMB      86              0.0000000000
      9831        86  CHL1      C21           -32.9573773994      -22.7322066797        7.4830650000  MEMB      86              0.0000000000
      9832        86  CHL1      H21A          -33.0171310480      -21.8265231711        8.1237550000  MEMB      86              0.0000000000
      9833        86  CHL1      H21B          -33.7444681632      -23.4304246645        7.8398650000  MEMB      86              0.0000000000
      9834        86  CHL1      H21C          -33.2450762541      -22.4442338506        6.4493250000  MEMB      86              0.0000000000
      9835        86  CHL1      C22           -31.3529868164      -24.3196198256        6.5060550000  MEMB      86              0.0000000000
      9836        86  CHL1      H22A          -30.4072575124      -24.8898874528        6.6273350000  MEMB      86              0.0000000000
      9837        86  CHL1      H22B          -32.1688037505      -25.0711493490        6.5691150000  MEMB      86              0.0000000000
      9838        86  CHL1      C23           -31.3333806465      -23.7607777055        5.0733550000  MEMB      86              0.0000000000
      9839        86  CHL1      H23A          -32.2872986265      -23.2222292773        4.8880950000  MEMB      86              0.0000000000
      9840        86  CHL1      H23B          -30.4627197456      -23.0865816251        4.9259250000  MEMB      86              0.0000000000
      9841        86  CHL1      C24           -31.3021386584      -24.7730247957        3.8526050000  MEMB      86              0.0000000000
      9842        86  CHL1      H24A          -30.3202255824      -25.2927939214        3.8545350000  MEMB      86              0.0000000000
      9843        86  CHL1      H24B          -32.2471684910      -25.3346383460        4.0133250000  MEMB      86              0.0000000000
      9844        86  CHL1      C25           -31.4478792630      -24.1588441866        2.4269350000  MEMB      86              0.0000000000
      9845        86  CHL1      H25           -32.4135262139      -23.6124985961        2.3688450000  MEMB      86              0.0000000000
      9846        86  CHL1      C26           -30.2949252542      -23.2540964891        2.0063550000  MEMB      86              0.0000000000
      9847        86  CHL1      H26A          -30.2134061166      -23.1498966699        0.9032550000  MEMB      86              0.0000000000
      9848        86  CHL1      H26B          -30.2654580907      -22.3213248285        2.6091750000  MEMB      86              0.0000000000
      9849        86  CHL1      H26C          -29.3641506153      -23.7822319078        2.3047450000  MEMB      86              0.0000000000
      9850        86  CHL1      C27           -31.4031964044      -25.2792444343        1.4820850000  MEMB      86              0.0000000000
      9851        86  CHL1      H27A          -31.6665684474      -24.9478107593        0.4549050000  MEMB      86              0.0000000000
      9852        86  CHL1      H27B          -30.4103720349      -25.7778246532        1.4888250000  MEMB      86              0.0000000000
      9853        86  CHL1      H27C          -32.1591627925      -26.0677431360        1.6848550000  MEMB      86              0.0000000000
      9854        87  SAPC      N             -24.5606753549       30.9030938480       21.7807170011  MEMB      87              0.0000000000
      9855        87  SAPC      C12           -24.5208804239       29.9345083008       20.5779771136  MEMB      87              0.0000000000
      9856        87  SAPC      H12A          -24.2394457172       28.9805881628       20.9989647331  MEMB      87              0.0000000000
      9857        87  SAPC      H12B          -23.6992940463       30.3000543576       19.9798367464  MEMB      87              0.0000000000
      9858        87  SAPC      C13           -24.4511067278       32.3031576973       21.3901507967  MEMB      87              0.0000000000
      9859        87  SAPC      H13A          -25.2502362040       32.5741669081       20.7160987748  MEMB      87              0.0000000000
      9860        87  SAPC      H13B          -24.4112071875       33.0272471475       22.1904648440  MEMB      87              0.0000000000
      9861        87  SAPC      H13C          -23.5609857377       32.3744723921       20.7826980880  MEMB      87              0.0000000000
      9862        87  SAPC      C14           -25.7905739476       30.5775321531       22.5770438954  MEMB      87              0.0000000000
      9863        87  SAPC      H14A          -26.0630670373       31.1325128083       23.4625629903  MEMB      87              0.0000000000
      9864        87  SAPC      H14B          -26.5065433413       30.5928981547       21.7686185124  MEMB      87              0.0000000000
      9865        87  SAPC      H14C          -25.8441695742       29.5154402433       22.7654273904  MEMB      87              0.0000000000
      9866        87  SAPC      C15           -23.3030825630       30.6868791789       22.5983132814  MEMB      87              0.0000000000
      9867        87  SAPC      H15A          -23.2262428068       31.3923260469       23.4124635699  MEMB      87              0.0000000000
      9868        87  SAPC      H15B          -23.2864746029       29.6659846087       22.9503057129  MEMB      87              0.0000000000
      9869        87  SAPC      H15C          -22.4239211271       30.9527521246       22.0301703540  MEMB      87              0.0000000000
      9870        87  SAPC      C11           -25.7789816046       29.8309705898       19.7246125762  MEMB      87              0.0000000000
      9871        87  SAPC      H11A          -26.5253074003       29.1369150342       20.1668858054  MEMB      87              0.0000000000
      9872        87  SAPC      H11B          -25.6212056094       29.4478656597       18.6937593679  MEMB      87              0.0000000000
      9873        87  SAPC      P             -26.2658767102       31.9705839310       18.1908217228  MEMB      87              0.0000000000
      9874        87  SAPC      O13           -24.8024274234       32.2472107241       18.0117826648  MEMB      87              0.0000000000
      9875        87  SAPC      O14           -26.9110023535       31.3715208678       17.0244657515  MEMB      87              0.0000000000
      9876        87  SAPC      O12           -26.4802521338       31.1063051255       19.5360045004  MEMB      87              0.0000000000
      9877        87  SAPC      O11           -27.0558268968       33.3321058885       18.5881107142  MEMB      87              0.0000000000
      9878        87  SAPC      C1            -28.1573500975       33.3059622315       19.4161945357  MEMB      87              0.0000000000
      9879        87  SAPC      HA            -28.5386319735       32.3165643973       19.7479130153  MEMB      87              0.0000000000
      9880        87  SAPC      HB            -27.8678533818       33.9028119141       20.3074201375  MEMB      87              0.0000000000
      9881        87  SAPC      C2            -29.3080464657       34.0106952692       18.7490564913  MEMB      87              0.0000000000
      9882        87  SAPC      HS            -30.2309702482       33.9295232739       19.3621987612  MEMB      87              0.0000000000
      9883        87  SAPC      O21           -29.5583781605       33.6116426221       17.3759552868  MEMB      87              0.0000000000
      9884        87  SAPC      C21           -30.0092004514       32.3104236994       17.2587352461  MEMB      87              0.0000000000
      9885        87  SAPC      O22           -30.1841675088       31.5491118896       18.1791605230  MEMB      87              0.0000000000
      9886        87  SAPC      C22           -30.1120514629       31.9428384045       15.7251231000  MEMB      87              0.0000000000
      9887        87  SAPC      H2R           -29.2389359279       32.3565545538       15.1766441073  MEMB      87              0.0000000000
      9888        87  SAPC      H2S           -30.0578806877       30.8371633882       15.6309459832  MEMB      87              0.0000000000
      9889        87  SAPC      C3            -28.9865727278       35.5582470369       18.7788845988  MEMB      87              0.0000000000
      9890        87  SAPC      HX            -28.9299210555       35.8443111090       19.8509288836  MEMB      87              0.0000000000
      9891        87  SAPC      HY            -29.8998154832       36.0897500388       18.4356455905  MEMB      87              0.0000000000
      9892        87  SAPC      O31           -27.7969096726       35.8203041568       18.0467627326  MEMB      87              0.0000000000
      9893        87  SAPC      C31           -27.8669674235       36.6358026246       16.9699385218  MEMB      87              0.0000000000
      9894        87  SAPC      O32           -28.8803311609       37.1141524365       16.5169317537  MEMB      87              0.0000000000
      9895        87  SAPC      C32           -26.4346322784       36.7804069197       16.3137649696  MEMB      87              0.0000000000
      9896        87  SAPC      H2X           -25.5757425072       36.3481609972       16.8703554387  MEMB      87              0.0000000000
      9897        87  SAPC      H2Y           -26.2593155793       37.8771809299       16.3396771504  MEMB      87              0.0000000000
      9898        87  SAPC      C23           -31.3984901205       32.5370887402       15.0505604707  MEMB      87              0.0000000000
      9899        87  SAPC      H3R           -32.3029443002       32.3055783510       15.6527953190  MEMB      87              0.0000000000
      9900        87  SAPC      H3S           -31.4062902443       32.0482508963       14.0529145909  MEMB      87              0.0000000000
      9901        87  SAPC      C24           -31.3809845742       34.0691840998       14.8588088131  MEMB      87              0.0000000000
      9902        87  SAPC      H4R           -31.3752503843       34.6001153665       15.8347186488  MEMB      87              0.0000000000
      9903        87  SAPC      H4S           -32.2887109787       34.3995549192       14.3099834208  MEMB      87              0.0000000000
      9904        87  SAPC      C25           -30.2816092662       34.6736047223       13.9781198173  MEMB      87              0.0000000000
      9905        87  SAPC      H5R           -29.2686465257       34.4562701214       14.3478120590  MEMB      87              0.0000000000
      9906        87  SAPC      C26           -30.4736442355       35.3997458199       12.7884928672  MEMB      87              0.0000000000
      9907        87  SAPC      H6R           -29.5314963490       35.8310178101       12.4192214506  MEMB      87              0.0000000000
      9908        87  SAPC      C27           -31.7647195196       35.8326842433       12.1654345295  MEMB      87              0.0000000000
      9909        87  SAPC      H7R           -32.0362533650       36.8368183956       12.5556970890  MEMB      87              0.0000000000
      9910        87  SAPC      H7S           -32.6474469152       35.2091881171       12.4230505904  MEMB      87              0.0000000000
      9911        87  SAPC      C28           -31.8888337458       36.0277366723       10.6745121331  MEMB      87              0.0000000000
      9912        87  SAPC      H8R           -32.2566741802       37.0084611827       10.3385471286  MEMB      87              0.0000000000
      9913        87  SAPC      C29           -31.5594711366       35.1207081908        9.7056664093  MEMB      87              0.0000000000
      9914        87  SAPC      H9R           -31.7680757641       35.5068854173        8.6970287204  MEMB      87              0.0000000000
      9915        87  SAPC      C210          -31.0354140990       33.7066195186        9.8630446316  MEMB      87              0.0000000000
      9916        87  SAPC      H10R          -31.1789116929       33.2755497942       10.8769027450  MEMB      87              0.0000000000
      9917        87  SAPC      H10S          -29.9350715939       33.6370047227        9.7262189240  MEMB      87              0.0000000000
      9918        87  SAPC      C211          -31.7187947546       32.7263294937        8.8623724603  MEMB      87              0.0000000000
      9919        87  SAPC      H11R          -32.6382438035       32.3761366076        9.3542853610  MEMB      87              0.0000000000
      9920        87  SAPC      C212          -31.3276232670       32.2860343526        7.6410975356  MEMB      87              0.0000000000
      9921        87  SAPC      H12R          -31.9005355383       31.4731379399        7.1710219366  MEMB      87              0.0000000000
      9922        87  SAPC      C213          -30.0551829585       32.6701878895        6.8461500945  MEMB      87              0.0000000000
      9923        87  SAPC      H13R          -29.9165949409       31.9439361673        6.0168894995  MEMB      87              0.0000000000
      9924        87  SAPC      H13S          -29.2291580628       32.5582671693        7.5806415358  MEMB      87              0.0000000000
      9925        87  SAPC      C214          -30.1384414591       34.0545520177        6.2822818590  MEMB      87              0.0000000000
      9926        87  SAPC      H14R          -29.5655346031       34.7895893018        6.8666606512  MEMB      87              0.0000000000
      9927        87  SAPC      C215          -30.7317700981       34.3625159524        5.1050318937  MEMB      87              0.0000000000
      9928        87  SAPC      H15R          -30.8136102782       35.4040830626        4.7608817456  MEMB      87              0.0000000000
      9929        87  SAPC      C216          -31.4576107768       33.4190507463        4.1549386223  MEMB      87              0.0000000000
      9930        87  SAPC      H16R          -32.2425434248       33.9548611955        3.5795178566  MEMB      87              0.0000000000
      9931        87  SAPC      H16S          -31.9083678346       32.5605510939        4.6972643678  MEMB      87              0.0000000000
      9932        87  SAPC      C217          -30.6074110208       32.6863827304        3.0860069627  MEMB      87              0.0000000000
      9933        87  SAPC      H17R          -31.2871351116       31.9860387950        2.5551442209  MEMB      87              0.0000000000
      9934        87  SAPC      H17S          -29.8648359004       32.0179174621        3.5718643323  MEMB      87              0.0000000000
      9935        87  SAPC      C218          -30.1463778116       33.5278804399        1.8896319662  MEMB      87              0.0000000000
      9936        87  SAPC      H18R          -29.7238880278       34.4433790005        2.3562008462  MEMB      87              0.0000000000
      9937        87  SAPC      H18S          -31.0544469599       33.8712837829        1.3494425149  MEMB      87              0.0000000000
      9938        87  SAPC      C219          -29.1677244232       32.7815088491        0.9779101163  MEMB      87              0.0000000000
      9939        87  SAPC      H19R          -28.3299437234       32.3530512074        1.5685605631  MEMB      87              0.0000000000
      9940        87  SAPC      H19S          -28.5264248434       33.4600733455        0.3757431174  MEMB      87              0.0000000000
      9941        87  SAPC      C220          -29.8315901335       31.7195353861        0.0887262558  MEMB      87              0.0000000000
      9942        87  SAPC      H20R          -30.5934421973       32.2045886370       -0.5582869705  MEMB      87              0.0000000000
      9943        87  SAPC      H20S          -30.3572588707       31.0085313942        0.7613833780  MEMB      87              0.0000000000
      9944        87  SAPC      H20T          -29.0437625992       31.2457068318       -0.5350805463  MEMB      87              0.0000000000
      9945        87  SAPC      C33           -26.3897715334       36.1912726508       14.8759738468  MEMB      87              0.0000000000
      9946        87  SAPC      H3X           -25.4379060100       36.5843858493       14.4591584999  MEMB      87              0.0000000000
      9947        87  SAPC      H3Y           -27.2683481363       36.5850503444       14.3215698825  MEMB      87              0.0000000000
      9948        87  SAPC      C34           -26.4030321232       34.6621706482       14.8257773209  MEMB      87              0.0000000000
      9949        87  SAPC      H4X           -27.3155376088       34.2227571043       15.2824722025  MEMB      87              0.0000000000
      9950        87  SAPC      H4Y           -25.6445542489       34.1791167526       15.4782271766  MEMB      87              0.0000000000
      9951        87  SAPC      C35           -26.2035219560       34.1466662913       13.3965973852  MEMB      87              0.0000000000
      9952        87  SAPC      H5X           -25.2501982401       34.4056599841       12.8882500498  MEMB      87              0.0000000000
      9953        87  SAPC      H5Y           -27.0406377858       34.5967280556       12.8212687733  MEMB      87              0.0000000000
      9954        87  SAPC      C36           -26.6002568716       32.6245183526       13.4920579551  MEMB      87              0.0000000000
      9955        87  SAPC      H6X           -27.6715733648       32.6385192517       13.7860067505  MEMB      87              0.0000000000
      9956        87  SAPC      H6Y           -26.0568872529       32.0364071405       14.2622500737  MEMB      87              0.0000000000
      9957        87  SAPC      C37           -26.5240972831       32.0056940346       12.0776268301  MEMB      87              0.0000000000
      9958        87  SAPC      H7X           -25.5311832518       32.2729055178       11.6568647696  MEMB      87              0.0000000000
      9959        87  SAPC      H7Y           -27.2569878208       32.5143883101       11.4154916824  MEMB      87              0.0000000000
      9960        87  SAPC      C38           -26.9726787245       30.5534481475       11.8634137365  MEMB      87              0.0000000000
      9961        87  SAPC      H8X           -28.0642043651       30.4223104098       12.0237126233  MEMB      87              0.0000000000
      9962        87  SAPC      H8Y           -26.4102501300       29.9458568082       12.6042430977  MEMB      87              0.0000000000
      9963        87  SAPC      C39           -26.5011134378       29.9708035831       10.5157735795  MEMB      87              0.0000000000
      9964        87  SAPC      H9X           -27.0449240893       29.0029853389       10.4719737804  MEMB      87              0.0000000000
      9965        87  SAPC      H9Y           -25.3969578289       29.8616081585       10.4588755325  MEMB      87              0.0000000000
      9966        87  SAPC      C310          -27.0529565667       30.6802153741        9.1972290187  MEMB      87              0.0000000000
      9967        87  SAPC      H10X          -26.8554362091       31.7728654285        9.1595135702  MEMB      87              0.0000000000
      9968        87  SAPC      H10Y          -28.1628816276       30.6402074084        9.1691758671  MEMB      87              0.0000000000
      9969        87  SAPC      C311          -26.3233061536       29.9626509177        8.0033316942  MEMB      87              0.0000000000
      9970        87  SAPC      H11X          -26.3986625613       28.8756273970        8.2201791556  MEMB      87              0.0000000000
      9971        87  SAPC      H11Y          -25.2168817934       30.0232809057        8.0837751395  MEMB      87              0.0000000000
      9972        87  SAPC      C312          -26.8839253178       30.3268956279        6.6326395587  MEMB      87              0.0000000000
      9973        87  SAPC      H12X          -27.9934852047       30.2729709957        6.6156140637  MEMB      87              0.0000000000
      9974        87  SAPC      H12Y          -26.3892099962       29.6442862137        5.9090228027  MEMB      87              0.0000000000
      9975        87  SAPC      C313          -26.5737173248       31.7582486874        6.2299205278  MEMB      87              0.0000000000
      9976        87  SAPC      H13X          -26.9656752462       32.4255244741        7.0270612287  MEMB      87              0.0000000000
      9977        87  SAPC      H13Y          -27.0731299700       31.9644332169        5.2591500162  MEMB      87              0.0000000000
      9978        87  SAPC      C314          -25.0997869099       32.1761282695        5.8051076621  MEMB      87              0.0000000000
      9979        87  SAPC      H14X          -24.6099944158       31.6176868918        4.9789312161  MEMB      87              0.0000000000
      9980        87  SAPC      H14Y          -24.4501829162       31.9488587065        6.6772795290  MEMB      87              0.0000000000
      9981        87  SAPC      C315          -25.0089181140       33.6371220164        5.3567185993  MEMB      87              0.0000000000
      9982        87  SAPC      H15X          -24.0084904908       34.0126024737        5.6608223259  MEMB      87              0.0000000000
      9983        87  SAPC      H15Y          -25.7914261311       34.2648754902        5.8341366769  MEMB      87              0.0000000000
      9984        87  SAPC      C316          -25.1926186782       33.9799524973        3.8295099672  MEMB      87              0.0000000000
      9985        87  SAPC      H16X          -24.8805640322       33.1356065404        3.1783395246  MEMB      87              0.0000000000
      9986        87  SAPC      H16Y          -24.4793248198       34.8114752098        3.6448387333  MEMB      87              0.0000000000
      9987        87  SAPC      C317          -26.6018987962       34.6071289685        3.3902263186  MEMB      87              0.0000000000
      9988        87  SAPC      H17X          -26.6732938368       35.4668559890        4.0902925678  MEMB      87              0.0000000000
      9989        87  SAPC      H17Y          -27.3577739696       33.7945393691        3.4419171947  MEMB      87              0.0000000000
      9990        87  SAPC      C318          -26.5637725280       34.9628414164        1.8904479051  MEMB      87              0.0000000000
      9991        87  SAPC      H18X          -27.5941563579       35.1655563568        1.5277697313  MEMB      87              0.0000000000
      9992        87  SAPC      H18Y          -26.0793430816       34.2979080257        1.1437806456  MEMB      87              0.0000000000
      9993        87  SAPC      H18Z          -26.0746323081       35.9531102488        1.7703217976  MEMB      87              0.0000000000
      9994        88  SAPE      N             -21.6877314612      -35.4364825366       22.9957272010  MEMB      88              0.0000000000
      9995        88  SAPE      HN1           -22.6652720063      -35.6167334942       22.6899100741  MEMB      88              0.0000000000
      9996        88  SAPE      HN2           -21.5804074380      -35.9385686483       23.9001559443  MEMB      88              0.0000000000
      9997        88  SAPE      HN3           -21.4212465711      -34.4435686543       23.1529144770  MEMB      88              0.0000000000
      9998        88  SAPE      C12           -20.7958090347      -35.7873265314       21.8195198051  MEMB      88              0.0000000000
      9999        88  SAPE      H12A          -21.1896349653      -36.6938532051       21.3121427751  MEMB      88              0.0000000000
     10000        88  SAPE      H12B          -19.7844999692      -35.9150774937       22.2613962599  MEMB      88              0.0000000000
     10001        88  SAPE      C11           -20.7686145045      -34.6953742782       20.7671371312  MEMB      88              0.0000000000
     10002        88  SAPE      H11A          -20.0497433420      -34.9811308268       19.9697109339  MEMB      88              0.0000000000
     10003        88  SAPE      H11B          -20.3321178295      -33.7548974869       21.1662549546  MEMB      88              0.0000000000
     10004        88  SAPE      P             -22.6192031839      -34.6397102241       18.8326464323  MEMB      88              0.0000000000
     10005        88  SAPE      O13           -22.3995121233      -36.0096729135       18.3156084393  MEMB      88              0.0000000000
     10006        88  SAPE      O14           -24.0294589196      -34.1729385022       18.9622942536  MEMB      88              0.0000000000
     10007        88  SAPE      O12           -22.0643327407      -34.5528104341       20.2829825898  MEMB      88              0.0000000000
     10008        88  SAPE      O11           -21.8346689958      -33.6553995327       18.0240841444  MEMB      88              0.0000000000
     10009        88  SAPE      C1            -21.5325066493      -32.3257958542       18.4290756822  MEMB      88              0.0000000000
     10010        88  SAPE      HA            -22.5063424133      -31.8524473137       18.6778850611  MEMB      88              0.0000000000
     10011        88  SAPE      HB            -20.8701021889      -32.3113294950       19.3208896490  MEMB      88              0.0000000000
     10012        88  SAPE      C2            -20.7296393322      -31.6073398519       17.3009268786  MEMB      88              0.0000000000
     10013        88  SAPE      HS            -20.7623810878      -30.5194400415       17.5239147521  MEMB      88              0.0000000000
     10014        88  SAPE      O21           -21.3317076557      -31.8372413462       16.0260006415  MEMB      88              0.0000000000
     10015        88  SAPE      C21           -20.9263984138      -31.1801679965       14.9538911417  MEMB      88              0.0000000000
     10016        88  SAPE      O22           -20.1496262698      -30.2190516083       15.0150949838  MEMB      88              0.0000000000
     10017        88  SAPE      C22           -21.6315482142      -31.7423270956       13.7737685646  MEMB      88              0.0000000000
     10018        88  SAPE      H2R           -21.9563956493      -30.9434076951       13.0733949741  MEMB      88              0.0000000000
     10019        88  SAPE      H2S           -20.9030141188      -32.3776516435       13.2261175564  MEMB      88              0.0000000000
     10020        88  SAPE      C3            -19.3361421315      -32.0846388183       17.3669756879  MEMB      88              0.0000000000
     10021        88  SAPE      HX            -18.9185576086      -31.8258695363       18.3634606830  MEMB      88              0.0000000000
     10022        88  SAPE      HY            -18.6907545952      -31.6242615301       16.5886127838  MEMB      88              0.0000000000
     10023        88  SAPE      O31           -19.2922806104      -33.5024099512       17.3346260993  MEMB      88              0.0000000000
     10024        88  SAPE      C31           -18.9963045537      -34.0518103306       16.1244986505  MEMB      88              0.0000000000
     10025        88  SAPE      O32           -18.8690862694      -33.3552809995       15.1387913457  MEMB      88              0.0000000000
     10026        88  SAPE      C32           -18.8786361012      -35.6460924144       16.0467043324  MEMB      88              0.0000000000
     10027        88  SAPE      H2X           -19.7221587478      -36.0858768753       16.6206212292  MEMB      88              0.0000000000
     10028        88  SAPE      H2Y           -17.9306478196      -35.8782353234       16.5775042363  MEMB      88              0.0000000000
     10029        88  SAPE      C23           -22.8347023186      -32.6760792157       14.1109960971  MEMB      88              0.0000000000
     10030        88  SAPE      H3R           -23.4340275618      -32.2184319813       14.9268939445  MEMB      88              0.0000000000
     10031        88  SAPE      H3S           -22.4271245159      -33.5246194879       14.7010646139  MEMB      88              0.0000000000
     10032        88  SAPE      C24           -23.5925339333      -33.1060109479       12.8079585844  MEMB      88              0.0000000000
     10033        88  SAPE      H4R           -23.8135367737      -32.1794565207       12.2361408111  MEMB      88              0.0000000000
     10034        88  SAPE      H4S           -24.6070615877      -33.4807084603       13.0622350990  MEMB      88              0.0000000000
     10035        88  SAPE      C25           -22.6475667835      -34.0506842539       12.0582607934  MEMB      88              0.0000000000
     10036        88  SAPE      H5R           -22.4525267870      -34.9799400880       12.6136372474  MEMB      88              0.0000000000
     10037        88  SAPE      C26           -22.0952271923      -33.8013253885       10.8357648921  MEMB      88              0.0000000000
     10038        88  SAPE      H6R           -21.6408261504      -34.6774712977       10.3500821852  MEMB      88              0.0000000000
     10039        88  SAPE      C27           -22.2277689346      -32.6767366546        9.8690082362  MEMB      88              0.0000000000
     10040        88  SAPE      H7R           -21.3900797305      -32.0558795845       10.2525892500  MEMB      88              0.0000000000
     10041        88  SAPE      H7S           -23.1027963590      -32.0484186999       10.1407886519  MEMB      88              0.0000000000
     10042        88  SAPE      C28           -22.3127097286      -32.9820200618        8.4240175656  MEMB      88              0.0000000000
     10043        88  SAPE      H8R           -22.9265556364      -33.8611623347        8.1784525907  MEMB      88              0.0000000000
     10044        88  SAPE      C29           -21.7579843568      -32.2679144269        7.4472528424  MEMB      88              0.0000000000
     10045        88  SAPE      H9R           -21.8472585208      -32.7251857499        6.4507929390  MEMB      88              0.0000000000
     10046        88  SAPE      C210          -20.9658119005      -30.9734770860        7.6529514634  MEMB      88              0.0000000000
     10047        88  SAPE      H10R          -19.9163490923      -31.2244364121        7.3884365273  MEMB      88              0.0000000000
     10048        88  SAPE      H10S          -20.6722668063      -30.7242374456        8.6950806023  MEMB      88              0.0000000000
     10049        88  SAPE      C211          -21.3913014354      -29.6389192844        7.1228127604  MEMB      88              0.0000000000
     10050        88  SAPE      H11R          -21.4431650682      -28.9404797182        7.9710415310  MEMB      88              0.0000000000
     10051        88  SAPE      C212          -21.5300093897      -29.0658400118        5.9285375174  MEMB      88              0.0000000000
     10052        88  SAPE      H12R          -21.8617541417      -28.0364354124        5.7278614326  MEMB      88              0.0000000000
     10053        88  SAPE      C213          -21.2508563814      -29.8371987796        4.6977075292  MEMB      88              0.0000000000
     10054        88  SAPE      H13R          -20.5872360744      -30.7165516694        4.8414710461  MEMB      88              0.0000000000
     10055        88  SAPE      H13S          -20.7864390266      -29.0996180797        4.0087866938  MEMB      88              0.0000000000
     10056        88  SAPE      C214          -22.5436166200      -30.3932190588        4.0765587745  MEMB      88              0.0000000000
     10057        88  SAPE      H14R          -23.3475518331      -30.5401036891        4.8128415126  MEMB      88              0.0000000000
     10058        88  SAPE      C215          -22.7655757044      -30.5990368694        2.7845668532  MEMB      88              0.0000000000
     10059        88  SAPE      H15R          -23.7713287619      -30.8741882539        2.4342080873  MEMB      88              0.0000000000
     10060        88  SAPE      C216          -21.8667517639      -30.4082343276        1.5415900212  MEMB      88              0.0000000000
     10061        88  SAPE      H16R          -21.3906321219      -31.3536545124        1.2042300416  MEMB      88              0.0000000000
     10062        88  SAPE      H16S          -21.0539793661      -29.7470042675        1.9110440844  MEMB      88              0.0000000000
     10063        88  SAPE      C217          -22.7014057285      -29.8609259947        0.3825090977  MEMB      88              0.0000000000
     10064        88  SAPE      H17R          -23.4601623402      -29.1181009868        0.7093445114  MEMB      88              0.0000000000
     10065        88  SAPE      H17S          -23.2626038300      -30.7929914600        0.1574951542  MEMB      88              0.0000000000
     10066        88  SAPE      C218          -21.9653271321      -29.4698113380       -0.8912485268  MEMB      88              0.0000000000
     10067        88  SAPE      H18R          -21.3561894984      -30.3090426164       -1.2899512541  MEMB      88              0.0000000000
     10068        88  SAPE      H18S          -21.2561157485      -28.7034286645       -0.5117786846  MEMB      88              0.0000000000
     10069        88  SAPE      C219          -22.9192198332      -28.9570051172       -2.0126686006  MEMB      88              0.0000000000
     10070        88  SAPE      H19R          -22.3518482145      -28.5757327364       -2.8884787490  MEMB      88              0.0000000000
     10071        88  SAPE      H19S          -23.5495113584      -28.1091278493       -1.6689296555  MEMB      88              0.0000000000
     10072        88  SAPE      C220          -23.8757151593      -29.9338209619       -2.5686749739  MEMB      88              0.0000000000
     10073        88  SAPE      H20R          -23.3779317915      -30.6897733922       -3.2129329014  MEMB      88              0.0000000000
     10074        88  SAPE      H20S          -24.7418259908      -29.4417526750       -3.0606520862  MEMB      88              0.0000000000
     10075        88  SAPE      H20T          -24.1900123517      -30.5696812483       -1.7135599606  MEMB      88              0.0000000000
     10076        88  SAPE      C33           -18.7929282926      -36.0288693661       14.5245327980  MEMB      88              0.0000000000
     10077        88  SAPE      H3X           -19.3710349728      -35.3039562878       13.9124748998  MEMB      88              0.0000000000
     10078        88  SAPE      H3Y           -19.3274086972      -36.9947016447       14.3987557673  MEMB      88              0.0000000000
     10079        88  SAPE      C34           -17.4017489829      -36.1061561424       13.8968127066  MEMB      88              0.0000000000
     10080        88  SAPE      H4X           -16.7998005014      -36.9029464295       14.3837460534  MEMB      88              0.0000000000
     10081        88  SAPE      H4Y           -16.9578007148      -35.0879446193       13.9186361111  MEMB      88              0.0000000000
     10082        88  SAPE      C35           -17.3295875527      -36.5834169813       12.4118229190  MEMB      88              0.0000000000
     10083        88  SAPE      H5X           -17.2566825825      -37.6904071424       12.4716425743  MEMB      88              0.0000000000
     10084        88  SAPE      H5Y           -16.4007002592      -36.1450640306       11.9883422386  MEMB      88              0.0000000000
     10085        88  SAPE      C36           -18.6215559195      -36.3480637516       11.6152840361  MEMB      88              0.0000000000
     10086        88  SAPE      H6X           -18.9427973833      -35.2927142319       11.7470509452  MEMB      88              0.0000000000
     10087        88  SAPE      H6Y           -19.4063071943      -37.0441187498       11.9813362999  MEMB      88              0.0000000000
     10088        88  SAPE      C37           -18.4340526210      -36.8003403838       10.0938328302  MEMB      88              0.0000000000
     10089        88  SAPE      H7X           -17.9522761286      -37.8014120785       10.1020464580  MEMB      88              0.0000000000
     10090        88  SAPE      H7Y           -17.6306057178      -36.1764905255        9.6470606787  MEMB      88              0.0000000000
     10091        88  SAPE      C38           -19.7236965913      -36.5588529855        9.2733974582  MEMB      88              0.0000000000
     10092        88  SAPE      H8X           -19.6978039820      -35.4818717033        9.0018064765  MEMB      88              0.0000000000
     10093        88  SAPE      H8Y           -20.6870930619      -36.7496747818        9.7927959502  MEMB      88              0.0000000000
     10094        88  SAPE      C39           -19.7121205140      -37.3410265373        7.9678066334  MEMB      88              0.0000000000
     10095        88  SAPE      H9X           -19.5527117686      -38.4244100384        8.1553945344  MEMB      88              0.0000000000
     10096        88  SAPE      H9Y           -18.8605037738      -37.0445022908        7.3188507695  MEMB      88              0.0000000000
     10097        88  SAPE      C310          -21.0247887338      -37.2620003975        7.1711619587  MEMB      88              0.0000000000
     10098        88  SAPE      H10X          -21.8387657822      -37.3146855595        7.9254736994  MEMB      88              0.0000000000
     10099        88  SAPE      H10Y          -21.0990677274      -38.2121560772        6.6001908587  MEMB      88              0.0000000000
     10100        88  SAPE      C311          -21.2814307890      -36.0394580246        6.2628935260  MEMB      88              0.0000000000
     10101        88  SAPE      H11X          -20.6410766414      -36.2334858959        5.3759766729  MEMB      88              0.0000000000
     10102        88  SAPE      H11Y          -21.0334334579      -35.0728228622        6.7511917557  MEMB      88              0.0000000000
     10103        88  SAPE      C312          -22.7512355050      -36.0427168858        5.7702738093  MEMB      88              0.0000000000
     10104        88  SAPE      H12X          -23.4983536915      -36.0348525290        6.5925108496  MEMB      88              0.0000000000
     10105        88  SAPE      H12Y          -22.7844070811      -36.9624602472        5.1479448877  MEMB      88              0.0000000000
     10106        88  SAPE      C313          -23.2525883264      -34.8929568177        4.7849538938  MEMB      88              0.0000000000
     10107        88  SAPE      H13X          -23.3238411777      -34.0209628521        5.4696959178  MEMB      88              0.0000000000
     10108        88  SAPE      H13Y          -24.2698311269      -35.1669132041        4.4321280291  MEMB      88              0.0000000000
     10109        88  SAPE      C314          -22.3068703724      -34.4925105482        3.6634408064  MEMB      88              0.0000000000
     10110        88  SAPE      H14X          -21.4752304836      -34.0158973021        4.2251670340  MEMB      88              0.0000000000
     10111        88  SAPE      H14Y          -22.7946157757      -33.7001762172        3.0562896127  MEMB      88              0.0000000000
     10112        88  SAPE      C315          -21.7197509549      -35.5877664848        2.6978710904  MEMB      88              0.0000000000
     10113        88  SAPE      H15X          -22.5686594427      -36.1045727718        2.2012953800  MEMB      88              0.0000000000
     10114        88  SAPE      H15Y          -21.3193783771      -36.4657137126        3.2485345416  MEMB      88              0.0000000000
     10115        88  SAPE      C316          -20.8905962034      -35.0062464209        1.5122827220  MEMB      88              0.0000000000
     10116        88  SAPE      H16X          -20.0369333702      -34.3884938652        1.8643655103  MEMB      88              0.0000000000
     10117        88  SAPE      H16Y          -21.5452014983      -34.4473599284        0.8098156310  MEMB      88              0.0000000000
     10118        88  SAPE      C317          -20.3106869799      -36.1873421889        0.6892764996  MEMB      88              0.0000000000
     10119        88  SAPE      H17X          -19.7630238361      -36.8237951458        1.4168152820  MEMB      88              0.0000000000
     10120        88  SAPE      H17Y          -19.4908746032      -35.8966756039       -0.0019129823  MEMB      88              0.0000000000
     10121        88  SAPE      C318          -21.2458267189      -37.0820604699       -0.0859265679  MEMB      88              0.0000000000
     10122        88  SAPE      H18X          -22.0052202740      -36.4803982402       -0.6296584282  MEMB      88              0.0000000000
     10123        88  SAPE      H18Y          -21.8329281457      -37.7879389824        0.5396682636  MEMB      88              0.0000000000
     10124        88  SAPE      H18Z          -20.5686524088      -37.6955475668       -0.7178976081  MEMB      88              0.0000000000
     10125        89  SAPE      N             -34.0206050467       20.9335705934       21.9820379636  MEMB      89              0.0000000000
     10126        89  SAPE      HN1           -33.7645381006       20.1094205546       21.4016875893  MEMB      89              0.0000000000
     10127        89  SAPE      HN2           -33.5871436220       21.7619106827       21.5264463446  MEMB      89              0.0000000000
     10128        89  SAPE      HN3           -33.7325974256       20.6855350556       22.9500928573  MEMB      89              0.0000000000
     10129        89  SAPE      C12           -35.5002558792       20.8795842506       21.9905342448  MEMB      89              0.0000000000
     10130        89  SAPE      H12A          -35.7837243327       21.5431797913       22.8352872765  MEMB      89              0.0000000000
     10131        89  SAPE      H12B          -35.7891731341       19.8751828810       22.3673968885  MEMB      89              0.0000000000
     10132        89  SAPE      C11           -35.9656061868       21.2027864568       20.5761088001  MEMB      89              0.0000000000
     10133        89  SAPE      H11A          -36.9870522112       20.7715683700       20.5052576713  MEMB      89              0.0000000000
     10134        89  SAPE      H11B          -35.3351533205       20.7167068479       19.8011398715  MEMB      89              0.0000000000
     10135        89  SAPE      P             -36.2779083065       23.3858051810       19.0848402679  MEMB      89              0.0000000000
     10136        89  SAPE      O13           -37.5808026093       22.7788804999       18.6710820283  MEMB      89              0.0000000000
     10137        89  SAPE      O14           -36.2307630054       24.8536488427       19.1408066858  MEMB      89              0.0000000000
     10138        89  SAPE      O12           -35.8606756207       22.6819316022       20.4566003524  MEMB      89              0.0000000000
     10139        89  SAPE      O11           -35.2430513472       22.8173661724       18.0979896669  MEMB      89              0.0000000000
     10140        89  SAPE      C1            -33.8797132333       23.1417702809       18.1468275288  MEMB      89              0.0000000000
     10141        89  SAPE      HA            -33.6860443816       24.2012277222       18.4195240852  MEMB      89              0.0000000000
     10142        89  SAPE      HB            -33.3005095949       22.4603334022       18.8059844371  MEMB      89              0.0000000000
     10143        89  SAPE      C2            -33.1764515314       23.1651134132       16.7675700821  MEMB      89              0.0000000000
     10144        89  SAPE      HS            -32.2683729207       23.7959705778       16.8758914407  MEMB      89              0.0000000000
     10145        89  SAPE      O21           -34.0595067847       23.8587825929       15.7919240471  MEMB      89              0.0000000000
     10146        89  SAPE      C21           -34.0167423221       25.2353144339       15.8986765027  MEMB      89              0.0000000000
     10147        89  SAPE      O22           -33.3820536135       25.9140603605       16.6480647628  MEMB      89              0.0000000000
     10148        89  SAPE      C22           -34.9697830784       25.7129778649       14.8557537143  MEMB      89              0.0000000000
     10149        89  SAPE      H2R           -36.0034872380       25.5786308528       15.2401071479  MEMB      89              0.0000000000
     10150        89  SAPE      H2S           -34.8308262090       26.8081183153       14.7305363880  MEMB      89              0.0000000000
     10151        89  SAPE      C3            -32.8023485323       21.8096521358       16.3155360011  MEMB      89              0.0000000000
     10152        89  SAPE      HX            -33.6848837712       21.1348951372       16.3279983999  MEMB      89              0.0000000000
     10153        89  SAPE      HY            -32.0118089914       21.3537848852       16.9492184338  MEMB      89              0.0000000000
     10154        89  SAPE      O31           -32.3677492490       21.9076043969       14.9052113763  MEMB      89              0.0000000000
     10155        89  SAPE      C31           -31.2168930153       22.4814763814       14.6662536719  MEMB      89              0.0000000000
     10156        89  SAPE      O32           -30.4527972663       22.9540399326       15.4534402636  MEMB      89              0.0000000000
     10157        89  SAPE      C32           -31.0116167330       22.3766955790       13.1737284109  MEMB      89              0.0000000000
     10158        89  SAPE      H2X           -30.8094038613       21.3075061044       12.9495293566  MEMB      89              0.0000000000
     10159        89  SAPE      H2Y           -30.0777802989       22.9271271518       12.9302214131  MEMB      89              0.0000000000
     10160        89  SAPE      C23           -34.6659896745       25.0676081518       13.5139922210  MEMB      89              0.0000000000
     10161        89  SAPE      H3R           -34.8851383614       23.9795366781       13.5629338187  MEMB      89              0.0000000000
     10162        89  SAPE      H3S           -33.5842893040       25.1737633268       13.2838262412  MEMB      89              0.0000000000
     10163        89  SAPE      C24           -35.4427506707       25.7954396610       12.3537732179  MEMB      89              0.0000000000
     10164        89  SAPE      H4R           -34.8762911804       25.4582557965       11.4594847800  MEMB      89              0.0000000000
     10165        89  SAPE      H4S           -35.1986038943       26.8756362760       12.2649529147  MEMB      89              0.0000000000
     10166        89  SAPE      C25           -36.9163997452       25.4153523201       12.3088531766  MEMB      89              0.0000000000
     10167        89  SAPE      H5R           -37.3244071665       25.4885797788       13.3277581997  MEMB      89              0.0000000000
     10168        89  SAPE      C26           -37.6646366369       24.9615295571       11.3233044868  MEMB      89              0.0000000000
     10169        89  SAPE      H6R           -38.7374200626       24.7636989218       11.4647209608  MEMB      89              0.0000000000
     10170        89  SAPE      C27           -37.1926331523       24.6851171398        9.9454360754  MEMB      89              0.0000000000
     10171        89  SAPE      H7R           -36.1010261732       24.8685449097        9.8502016502  MEMB      89              0.0000000000
     10172        89  SAPE      H7S           -37.7315160619       25.4088059761        9.2972072055  MEMB      89              0.0000000000
     10173        89  SAPE      C28           -37.4110981157       23.2618023749        9.5445732820  MEMB      89              0.0000000000
     10174        89  SAPE      H8R           -36.8658397759       22.5495953290       10.1813263082  MEMB      89              0.0000000000
     10175        89  SAPE      C29           -38.1019150701       22.7796621271        8.4418082190  MEMB      89              0.0000000000
     10176        89  SAPE      H9R           -38.3217672936       21.7112041399        8.3001666019  MEMB      89              0.0000000000
     10177        89  SAPE      C210          -38.8184433814       23.4448069222        7.3336502079  MEMB      89              0.0000000000
     10178        89  SAPE      H10R          -39.9112984535       23.2551186068        7.3969526165  MEMB      89              0.0000000000
     10179        89  SAPE      H10S          -38.5192719559       22.9671079719        6.3762459165  MEMB      89              0.0000000000
     10180        89  SAPE      C211          -38.4731314053       24.8994622877        7.1302586058  MEMB      89              0.0000000000
     10181        89  SAPE      H11R          -39.0519186862       25.5915615781        7.7595465483  MEMB      89              0.0000000000
     10182        89  SAPE      C212          -37.5178715417       25.4456915392        6.2941843391  MEMB      89              0.0000000000
     10183        89  SAPE      H12R          -37.5596512394       26.5393625962        6.1840110500  MEMB      89              0.0000000000
     10184        89  SAPE      C213          -36.5386324120       24.7855930365        5.3474532334  MEMB      89              0.0000000000
     10185        89  SAPE      H13R          -36.4241295723       25.3606265345        4.4037653780  MEMB      89              0.0000000000
     10186        89  SAPE      H13S          -37.0033362541       23.7948985448        5.1553709433  MEMB      89              0.0000000000
     10187        89  SAPE      C214          -35.0954025565       24.5907324940        5.8421707422  MEMB      89              0.0000000000
     10188        89  SAPE      H14R          -34.8607721754       23.6580696615        6.3761082410  MEMB      89              0.0000000000
     10189        89  SAPE      C215          -33.9836041619       25.4024747458        5.6360385711  MEMB      89              0.0000000000
     10190        89  SAPE      H15R          -33.0270569080       25.0671318762        6.0633115068  MEMB      89              0.0000000000
     10191        89  SAPE      C216          -33.9191785874       26.7337097200        4.9062572813  MEMB      89              0.0000000000
     10192        89  SAPE      H16R          -33.2780852896       27.4328935397        5.4845842239  MEMB      89              0.0000000000
     10193        89  SAPE      H16S          -34.9570566528       27.0857477895        4.7240499954  MEMB      89              0.0000000000
     10194        89  SAPE      C217          -33.3167287158       26.8085485539        3.4762314734  MEMB      89              0.0000000000
     10195        89  SAPE      H17R          -32.3296529679       26.3146336798        3.6029224336  MEMB      89              0.0000000000
     10196        89  SAPE      H17S          -33.2028218403       27.8526797169        3.1141054102  MEMB      89              0.0000000000
     10197        89  SAPE      C218          -33.9971473850       25.9367495490        2.4194636221  MEMB      89              0.0000000000
     10198        89  SAPE      H18R          -34.2584188028       24.9476719028        2.8528046220  MEMB      89              0.0000000000
     10199        89  SAPE      H18S          -33.2637909825       25.6200694943        1.6473103178  MEMB      89              0.0000000000
     10200        89  SAPE      C219          -35.3220850992       26.4353537187        1.8446639410  MEMB      89              0.0000000000
     10201        89  SAPE      H19R          -35.2139131112       27.4090434970        1.3206906823  MEMB      89              0.0000000000
     10202        89  SAPE      H19S          -35.9812398103       26.5360957968        2.7333077087  MEMB      89              0.0000000000
     10203        89  SAPE      C220          -35.8995579330       25.3685552573        0.9722186921  MEMB      89              0.0000000000
     10204        89  SAPE      H20R          -36.0404271567       24.3701750466        1.4388161086  MEMB      89              0.0000000000
     10205        89  SAPE      H20S          -35.3038494234       25.3287247800        0.0352743560  MEMB      89              0.0000000000
     10206        89  SAPE      H20T          -36.8745901457       25.5997127083        0.4924279603  MEMB      89              0.0000000000
     10207        89  SAPE      C33           -32.0866078444       22.9670269244       12.2562312641  MEMB      89              0.0000000000
     10208        89  SAPE      H3X           -31.8979207443       24.0618864943       12.2553528494  MEMB      89              0.0000000000
     10209        89  SAPE      H3Y           -33.0473031223       22.8258475211       12.7960957800  MEMB      89              0.0000000000
     10210        89  SAPE      C34           -32.1140964071       22.4273063193       10.8179934939  MEMB      89              0.0000000000
     10211        89  SAPE      H4X           -31.7442698565       21.3797210804       10.8073067532  MEMB      89              0.0000000000
     10212        89  SAPE      H4Y           -31.3686193404       23.0419027125       10.2694903187  MEMB      89              0.0000000000
     10213        89  SAPE      C35           -33.5186462797       22.6946320034       10.2252872402  MEMB      89              0.0000000000
     10214        89  SAPE      H5X           -33.7368068062       23.7811065549       10.3046598658  MEMB      89              0.0000000000
     10215        89  SAPE      H5Y           -34.3071467377       22.1602236650       10.7971228075  MEMB      89              0.0000000000
     10216        89  SAPE      C36           -33.5337385848       22.2531484260        8.7736906097  MEMB      89              0.0000000000
     10217        89  SAPE      H6X           -32.5900481715       22.4001421050        8.2060976351  MEMB      89              0.0000000000
     10218        89  SAPE      H6Y           -34.3512702260       22.8035907586        8.2608783422  MEMB      89              0.0000000000
     10219        89  SAPE      C37           -33.8075455770       20.7337011044        8.6485214046  MEMB      89              0.0000000000
     10220        89  SAPE      H7X           -34.6046677652       20.3846909508        9.3392526636  MEMB      89              0.0000000000
     10221        89  SAPE      H7Y           -32.8291207310       20.2508547468        8.8579616077  MEMB      89              0.0000000000
     10222        89  SAPE      C38           -34.2741387172       20.3528113114        7.2058808956  MEMB      89              0.0000000000
     10223        89  SAPE      H8X           -34.1621481899       19.2605172639        7.0365515439  MEMB      89              0.0000000000
     10224        89  SAPE      H8Y           -33.6034654230       21.0199974995        6.6233168806  MEMB      89              0.0000000000
     10225        89  SAPE      C39           -35.7019538848       20.6112625710        6.8956581168  MEMB      89              0.0000000000
     10226        89  SAPE      H9X           -35.9986774743       21.6403685973        7.1909832371  MEMB      89              0.0000000000
     10227        89  SAPE      H9Y           -36.2554067196       19.9613669108        7.6067464399  MEMB      89              0.0000000000
     10228        89  SAPE      C310          -36.0561915302       20.2252757410        5.4575290374  MEMB      89              0.0000000000
     10229        89  SAPE      H10X          -35.3664743044       20.7455240446        4.7589927066  MEMB      89              0.0000000000
     10230        89  SAPE      H10Y          -37.0997835046       20.5425950816        5.2464718531  MEMB      89              0.0000000000
     10231        89  SAPE      C311          -35.9860106680       18.8104337876        5.0315724365  MEMB      89              0.0000000000
     10232        89  SAPE      H11X          -36.4836399156       18.1135501392        5.7394134765  MEMB      89              0.0000000000
     10233        89  SAPE      H11Y          -34.9756197749       18.3489009850        5.0110995455  MEMB      89              0.0000000000
     10234        89  SAPE      C312          -36.5418792923       18.5708000973        3.5623739309  MEMB      89              0.0000000000
     10235        89  SAPE      H12X          -37.6413732370       18.7140409787        3.6324907480  MEMB      89              0.0000000000
     10236        89  SAPE      H12Y          -36.3314138317       17.5172315464        3.2794977760  MEMB      89              0.0000000000
     10237        89  SAPE      C313          -36.0689504263       19.4668611196        2.3662881847  MEMB      89              0.0000000000
     10238        89  SAPE      H13X          -36.3465836036       20.5019204717        2.6593637005  MEMB      89              0.0000000000
     10239        89  SAPE      H13Y          -36.6007862719       19.2097552032        1.4253478132  MEMB      89              0.0000000000
     10240        89  SAPE      C314          -34.5753467826       19.4072608170        2.1359874714  MEMB      89              0.0000000000
     10241        89  SAPE      H14X          -34.2689296380       18.4549013768        1.6528298770  MEMB      89              0.0000000000
     10242        89  SAPE      H14Y          -34.0874033587       19.4829292673        3.1312301474  MEMB      89              0.0000000000
     10243        89  SAPE      C315          -34.0309825848       20.5809243001        1.3272619272  MEMB      89              0.0000000000
     10244        89  SAPE      H15X          -34.2105305769       21.4703906151        1.9683010968  MEMB      89              0.0000000000
     10245        89  SAPE      H15Y          -34.6001656781       20.7474853078        0.3877891191  MEMB      89              0.0000000000
     10246        89  SAPE      C316          -32.5442566862       20.4567355259        1.0505457153  MEMB      89              0.0000000000
     10247        89  SAPE      H16X          -32.3130403166       19.5262002039        0.4893288614  MEMB      89              0.0000000000
     10248        89  SAPE      H16Y          -31.9915350472       20.3272126386        2.0055558355  MEMB      89              0.0000000000
     10249        89  SAPE      C317          -31.9228118508       21.7483812803        0.5651103863  MEMB      89              0.0000000000
     10250        89  SAPE      H17X          -30.8361293468       21.6857622240        0.3425764425  MEMB      89              0.0000000000
     10251        89  SAPE      H17Y          -31.9802791475       22.4252588821        1.4442322706  MEMB      89              0.0000000000
     10252        89  SAPE      C318          -32.4049379762       22.3928194535       -0.7261265419  MEMB      89              0.0000000000
     10253        89  SAPE      H18X          -31.8534543296       23.3405107984       -0.9052021124  MEMB      89              0.0000000000
     10254        89  SAPE      H18Y          -33.4648383973       22.7249911945       -0.7017499546  MEMB      89              0.0000000000
     10255        89  SAPE      H18Z          -32.4164519088       21.6746290784       -1.5737058623  MEMB      89              0.0000000000
     10256        90  SAPE      N              31.6647951226       24.5843137604       20.4138198665  MEMB      90              0.0000000000
     10257        90  SAPE      HN1            32.6824697790       24.3720758831       20.4437097429  MEMB      90              0.0000000000
     10258        90  SAPE      HN2            31.5957323963       25.2838352433       21.1803054082  MEMB      90              0.0000000000
     10259        90  SAPE      HN3            31.0970731339       23.7348290100       20.6079003021  MEMB      90              0.0000000000
     10260        90  SAPE      C12            31.4322680874       25.2452067160       19.1267455810  MEMB      90              0.0000000000
     10261        90  SAPE      H12A           30.3577296743       25.4981740126       19.2520280754  MEMB      90              0.0000000000
     10262        90  SAPE      H12B           31.5006768821       24.4777305841       18.3263572091  MEMB      90              0.0000000000
     10263        90  SAPE      C11            32.2941105808       26.4472344336       19.0009668731  MEMB      90              0.0000000000
     10264        90  SAPE      H11A           31.9788373297       27.0273304560       18.1074275303  MEMB      90              0.0000000000
     10265        90  SAPE      H11B           33.3539808381       26.2667039476       18.7209583647  MEMB      90              0.0000000000
     10266        90  SAPE      P              32.7352366907       28.7739293662       20.3477141726  MEMB      90              0.0000000000
     10267        90  SAPE      O13            32.1214274485       29.3043817550       21.6312969093  MEMB      90              0.0000000000
     10268        90  SAPE      O14            34.1945705592       28.5715798837       20.1467770071  MEMB      90              0.0000000000
     10269        90  SAPE      O12            32.2072417961       27.2792889733       20.1887655908  MEMB      90              0.0000000000
     10270        90  SAPE      O11            31.9927049363       29.4887504408       19.1439140216  MEMB      90              0.0000000000
     10271        90  SAPE      C1             30.5745975078       29.7464000227       19.4033756807  MEMB      90              0.0000000000
     10272        90  SAPE      HA             29.9584532125       28.8866926123       19.7433616237  MEMB      90              0.0000000000
     10273        90  SAPE      HB             30.4651732324       30.5469899531       20.1658736987  MEMB      90              0.0000000000
     10274        90  SAPE      C2             29.9008797241       30.3161470484       18.1615156188  MEMB      90              0.0000000000
     10275        90  SAPE      HS             28.8085091219       30.3795055647       18.3539561191  MEMB      90              0.0000000000
     10276        90  SAPE      O21            30.2060291413       29.5868457886       17.0516162114  MEMB      90              0.0000000000
     10277        90  SAPE      C21            29.5745689776       28.4173114050       16.9493449813  MEMB      90              0.0000000000
     10278        90  SAPE      O22            28.6855428224       28.1269430425       17.6865323849  MEMB      90              0.0000000000
     10279        90  SAPE      C22            30.0439529957       27.6045693663       15.7404313559  MEMB      90              0.0000000000
     10280        90  SAPE      H2R            31.0721623386       27.2329169258       15.9378675034  MEMB      90              0.0000000000
     10281        90  SAPE      H2S            29.4590311888       26.6705091181       15.6000071533  MEMB      90              0.0000000000
     10282        90  SAPE      C3             30.3233801703       31.7663212285       17.9982472712  MEMB      90              0.0000000000
     10283        90  SAPE      HX             31.4326327092       31.8073281731       18.0451292786  MEMB      90              0.0000000000
     10284        90  SAPE      HY             29.8963007513       32.2922023161       18.8788002211  MEMB      90              0.0000000000
     10285        90  SAPE      O31            29.6980876691       32.4683727236       16.9561426156  MEMB      90              0.0000000000
     10286        90  SAPE      C31            30.3363688343       32.4464962850       15.7896033825  MEMB      90              0.0000000000
     10287        90  SAPE      O32            31.3494634319       31.8326016477       15.4893877316  MEMB      90              0.0000000000
     10288        90  SAPE      C32            29.4089476567       33.1172667043       14.7944668869  MEMB      90              0.0000000000
     10289        90  SAPE      H2X            29.5158843784       34.2191533403       14.8879058976  MEMB      90              0.0000000000
     10290        90  SAPE      H2Y            28.3813744019       32.7291472114       14.9611347887  MEMB      90              0.0000000000
     10291        90  SAPE      C23            30.1058762460       28.4579769374       14.4265370508  MEMB      90              0.0000000000
     10292        90  SAPE      H3R            30.7730615500       29.3322526080       14.5841018585  MEMB      90              0.0000000000
     10293        90  SAPE      H3S            29.1352769224       28.9725674132       14.2608418843  MEMB      90              0.0000000000
     10294        90  SAPE      C24            30.7047265184       27.7156579155       13.1885177156  MEMB      90              0.0000000000
     10295        90  SAPE      H4R            30.3947276998       28.2616960216       12.2719673976  MEMB      90              0.0000000000
     10296        90  SAPE      H4S            30.1344367966       26.7735729914       13.0416619061  MEMB      90              0.0000000000
     10297        90  SAPE      C25            32.1999159717       27.4837242398       13.2608902911  MEMB      90              0.0000000000
     10298        90  SAPE      H5R            32.3565837800       26.4337732960       13.5490879230  MEMB      90              0.0000000000
     10299        90  SAPE      C26            33.1856460011       28.3411383948       13.0563489909  MEMB      90              0.0000000000
     10300        90  SAPE      H6R            34.2016606070       27.9822299559       13.2774802200  MEMB      90              0.0000000000
     10301        90  SAPE      C27            33.0583651632       29.7917871535       12.5885145409  MEMB      90              0.0000000000
     10302        90  SAPE      H7R            33.1477825567       30.5084313228       13.4327575356  MEMB      90              0.0000000000
     10303        90  SAPE      H7S            32.1290393926       30.0262922480       12.0266579947  MEMB      90              0.0000000000
     10304        90  SAPE      C28            34.2213400127       30.2856522840       11.6956442243  MEMB      90              0.0000000000
     10305        90  SAPE      H8R            35.2057762949       29.9022186483       12.0020154643  MEMB      90              0.0000000000
     10306        90  SAPE      C29            34.2104747844       31.1873763257       10.7378586634  MEMB      90              0.0000000000
     10307        90  SAPE      H9R            35.1642672553       31.3623051780       10.2185512623  MEMB      90              0.0000000000
     10308        90  SAPE      C210           33.0232239525       31.9366069358       10.2209340029  MEMB      90              0.0000000000
     10309        90  SAPE      H10R           33.0191350002       32.9677667919       10.6344723447  MEMB      90              0.0000000000
     10310        90  SAPE      H10S           32.1029086161       31.5878463847       10.7364016268  MEMB      90              0.0000000000
     10311        90  SAPE      C211           32.7303008037       32.0396453558        8.7007565330  MEMB      90              0.0000000000
     10312        90  SAPE      H11R           32.7331824801       33.0552883723        8.2783091179  MEMB      90              0.0000000000
     10313        90  SAPE      C212           32.6743336012       31.1146205695        7.8338850344  MEMB      90              0.0000000000
     10314        90  SAPE      H12R           32.5180918159       31.4592001642        6.8009989219  MEMB      90              0.0000000000
     10315        90  SAPE      C213           32.7905565917       29.6065773396        7.9642995497  MEMB      90              0.0000000000
     10316        90  SAPE      H13R           33.5046360068       29.4717413371        8.8046743095  MEMB      90              0.0000000000
     10317        90  SAPE      H13S           33.2706664956       29.1576697147        7.0685887754  MEMB      90              0.0000000000
     10318        90  SAPE      C214           31.4769271595       28.9339541946        8.3434726635  MEMB      90              0.0000000000
     10319        90  SAPE      H14R           30.7142595921       29.5487369355        8.8438532217  MEMB      90              0.0000000000
     10320        90  SAPE      C215           31.2062110693       27.6595732864        8.1354812593  MEMB      90              0.0000000000
     10321        90  SAPE      H15R           30.2212404511       27.3990634816        8.5501708449  MEMB      90              0.0000000000
     10322        90  SAPE      C216           32.1732983737       26.6511648395        7.5461207507  MEMB      90              0.0000000000
     10323        90  SAPE      H16R           31.9760578808       25.6935609558        8.0737685446  MEMB      90              0.0000000000
     10324        90  SAPE      H16S           33.2187074149       27.0060422347        7.6706310631  MEMB      90              0.0000000000
     10325        90  SAPE      C217           31.9925869306       26.4776777913        6.0111403788  MEMB      90              0.0000000000
     10326        90  SAPE      H17R           32.9107186644       25.9284258669        5.7116785653  MEMB      90              0.0000000000
     10327        90  SAPE      H17S           31.9338003602       27.4740554934        5.5231889741  MEMB      90              0.0000000000
     10328        90  SAPE      C218           30.8052161962       25.6487108264        5.5012634436  MEMB      90              0.0000000000
     10329        90  SAPE      H18R           29.8586236451       25.8701457860        6.0390833619  MEMB      90              0.0000000000
     10330        90  SAPE      H18S           30.9318774933       24.5452017134        5.4779016370  MEMB      90              0.0000000000
     10331        90  SAPE      C219           30.4140642537       25.9038757858        4.0479278284  MEMB      90              0.0000000000
     10332        90  SAPE      H19R           30.6184517976       26.9291821544        3.6720385006  MEMB      90              0.0000000000
     10333        90  SAPE      H19S           29.3189847911       25.7918685845        3.8976760569  MEMB      90              0.0000000000
     10334        90  SAPE      C220           30.9429596665       24.9021771172        3.0195172997  MEMB      90              0.0000000000
     10335        90  SAPE      H20R           30.6434112807       23.8584245906        3.2544049565  MEMB      90              0.0000000000
     10336        90  SAPE      H20S           32.0530048132       24.8562807686        3.0157284368  MEMB      90              0.0000000000
     10337        90  SAPE      H20T           30.6108789250       25.2378118293        2.0138367957  MEMB      90              0.0000000000
     10338        90  SAPE      C33            29.8722595118       32.6857682441       13.3691497639  MEMB      90              0.0000000000
     10339        90  SAPE      H3X            30.3910298838       31.7046679893       13.4205380392  MEMB      90              0.0000000000
     10340        90  SAPE      H3Y            30.5787535568       33.4762295326       13.0369480391  MEMB      90              0.0000000000
     10341        90  SAPE      C34            28.7533097336       32.5449951915       12.3176979011  MEMB      90              0.0000000000
     10342        90  SAPE      H4X            28.2284401883       33.5234923293       12.2806036489  MEMB      90              0.0000000000
     10343        90  SAPE      H4Y            28.1447853211       31.6819743882       12.6629727321  MEMB      90              0.0000000000
     10344        90  SAPE      C35            29.2176108398       32.1551296812       10.9695966793  MEMB      90              0.0000000000
     10345        90  SAPE      H5X            29.6956328000       31.1636629049       11.1206243686  MEMB      90              0.0000000000
     10346        90  SAPE      H5Y            30.0244722399       32.8839577261       10.7413305225  MEMB      90              0.0000000000
     10347        90  SAPE      C36            28.1730401230       32.3006302605        9.9137483915  MEMB      90              0.0000000000
     10348        90  SAPE      H6X            27.3811483190       33.0436174473       10.1486911094  MEMB      90              0.0000000000
     10349        90  SAPE      H6Y            27.7138786816       31.2918633008        9.8370590158  MEMB      90              0.0000000000
     10350        90  SAPE      C37            28.7675119289       32.6803760449        8.5380848151  MEMB      90              0.0000000000
     10351        90  SAPE      H7X            29.5318359882       31.9211808052        8.2665111569  MEMB      90              0.0000000000
     10352        90  SAPE      H7Y            29.2911644557       33.6600308840        8.5577228567  MEMB      90              0.0000000000
     10353        90  SAPE      C38            27.7724021465       32.6259859907        7.3534685416  MEMB      90              0.0000000000
     10354        90  SAPE      H8X            28.0783584228       33.2413072843        6.4804900250  MEMB      90              0.0000000000
     10355        90  SAPE      H8Y            26.8406644115       33.1434260924        7.6672233778  MEMB      90              0.0000000000
     10356        90  SAPE      C39            27.3446760662       31.2320234113        6.8243334061  MEMB      90              0.0000000000
     10357        90  SAPE      H9X            26.5420950096       31.4944469958        6.1023095487  MEMB      90              0.0000000000
     10358        90  SAPE      H9Y            26.9929453976       30.6219062209        7.6836140739  MEMB      90              0.0000000000
     10359        90  SAPE      C310           28.5176357295       30.4370160101        6.2415830226  MEMB      90              0.0000000000
     10360        90  SAPE      H10X           27.9968324306       29.6759415853        5.6220264403  MEMB      90              0.0000000000
     10361        90  SAPE      H10Y           29.0961002006       30.0697491187        7.1161200692  MEMB      90              0.0000000000
     10362        90  SAPE      C311           29.5115139169       31.1478137566        5.3722412917  MEMB      90              0.0000000000
     10363        90  SAPE      H11X           30.1426394692       31.8763625697        5.9247074186  MEMB      90              0.0000000000
     10364        90  SAPE      H11Y           28.8731046944       31.7246137303        4.6693501514  MEMB      90              0.0000000000
     10365        90  SAPE      C312           30.5170181510       30.2243856935        4.6149536585  MEMB      90              0.0000000000
     10366        90  SAPE      H12X           29.9711123003       29.6059824408        3.8707179054  MEMB      90              0.0000000000
     10367        90  SAPE      H12Y           31.0307549376       29.5254678490        5.3091504674  MEMB      90              0.0000000000
     10368        90  SAPE      C313           31.6220961014       31.0418291776        3.8627059073  MEMB      90              0.0000000000
     10369        90  SAPE      H13X           32.4017357740       30.3898946477        3.4138575929  MEMB      90              0.0000000000
     10370        90  SAPE      H13Y           32.0765567912       31.7036440964        4.6306817667  MEMB      90              0.0000000000
     10371        90  SAPE      C314           31.0597124234       32.0909114388        2.8649891447  MEMB      90              0.0000000000
     10372        90  SAPE      H14X           31.8278380549       32.7493854159        2.4059506911  MEMB      90              0.0000000000
     10373        90  SAPE      H14Y           30.3836980774       32.7029018394        3.4996485482  MEMB      90              0.0000000000
     10374        90  SAPE      C315           30.2001088731       31.6369740465        1.6457528509  MEMB      90              0.0000000000
     10375        90  SAPE      H15X           30.2188086615       32.5044188723        0.9518427499  MEMB      90              0.0000000000
     10376        90  SAPE      H15Y           29.1382005184       31.5229256984        1.9517993228  MEMB      90              0.0000000000
     10377        90  SAPE      C316           30.8370528674       30.4141412925        0.8546285622  MEMB      90              0.0000000000
     10378        90  SAPE      H16X           30.0131060568       29.8964617491        0.3184939657  MEMB      90              0.0000000000
     10379        90  SAPE      H16Y           31.2176415669       29.6424496918        1.5574538528  MEMB      90              0.0000000000
     10380        90  SAPE      C317           31.9615466076       30.7417590360       -0.0906432783  MEMB      90              0.0000000000
     10381        90  SAPE      H17X           32.4835804958       29.8339402054       -0.4616776431  MEMB      90              0.0000000000
     10382        90  SAPE      H17Y           32.7482034360       31.3215813682        0.4378435183  MEMB      90              0.0000000000
     10383        90  SAPE      C318           31.6150512798       31.6315800227       -1.3179935002  MEMB      90              0.0000000000
     10384        90  SAPE      H18X           30.6875130056       31.3608564376       -1.8663561173  MEMB      90              0.0000000000
     10385        90  SAPE      H18Y           32.3696384902       31.5870246250       -2.1322008673  MEMB      90              0.0000000000
     10386        90  SAPE      H18Z           31.4627378406       32.6531134469       -0.9086153626  MEMB      90              0.0000000000
     10387        91  SAPS      N              27.8847422938      -30.0590486661       21.3107202418  MEMB      91              0.0000000000
     10388        91  SAPS      HN1            28.0431828329      -29.1402665347       20.8499208899  MEMB      91              0.0000000000
     10389        91  SAPS      HN2            26.9197301939      -30.0599794589       21.6984712288  MEMB      91              0.0000000000
     10390        91  SAPS      HN3            28.5069992843      -30.3567604076       22.0890287618  MEMB      91              0.0000000000
     10391        91  SAPS      C12            27.8913207524      -30.9814716364       20.1653337204  MEMB      91              0.0000000000
     10392        91  SAPS      H12A           27.7909150963      -31.9804213519       20.5633515316  MEMB      91              0.0000000000
     10393        91  SAPS      C13            26.8512215161      -30.7624378482       19.0016126943  MEMB      91              0.0000000000
     10394        91  SAPS      O13A           25.9230981193      -29.9011541135       19.0199806573  MEMB      91              0.0000000000
     10395        91  SAPS      O13B           26.9163166719      -31.5517700889       18.0604681241  MEMB      91              0.0000000000
     10396        91  SAPS      C11            29.3288086320      -30.8524061454       19.5483692068  MEMB      91              0.0000000000
     10397        91  SAPS      H11A           29.4074484421      -29.8048657443       19.1867119360  MEMB      91              0.0000000000
     10398        91  SAPS      H11B           29.4239411691      -31.5286037014       18.6719973514  MEMB      91              0.0000000000
     10399        91  SAPS      P              31.4774502665      -32.1477744500       20.6464233525  MEMB      91              0.0000000000
     10400        91  SAPS      O13            32.6112242598      -31.6720477070       21.4509431951  MEMB      91              0.0000000000
     10401        91  SAPS      O14            30.7211712875      -33.3662842046       21.1897890179  MEMB      91              0.0000000000
     10402        91  SAPS      O12            30.4505265555      -30.9930120848       20.5237016561  MEMB      91              0.0000000000
     10403        91  SAPS      O11            31.9261701438      -32.3175911533       19.0826581026  MEMB      91              0.0000000000
     10404        91  SAPS      C1             32.8843435262      -31.4781191664       18.4783021055  MEMB      91              0.0000000000
     10405        91  SAPS      HA             32.7262415980      -30.3888159247       18.6291105960  MEMB      91              0.0000000000
     10406        91  SAPS      HB             33.9249776451      -31.6310471288       18.8360929496  MEMB      91              0.0000000000
     10407        91  SAPS      C2             32.7348146653      -31.5259582318       16.9493413279  MEMB      91              0.0000000000
     10408        91  SAPS      HS             33.4152116151      -30.7815771288       16.4832104373  MEMB      91              0.0000000000
     10409        91  SAPS      O21            31.3800737235      -31.3883780293       16.4771645661  MEMB      91              0.0000000000
     10410        91  SAPS      C21            30.9742570580      -30.1062003563       16.2810602190  MEMB      91              0.0000000000
     10411        91  SAPS      O22            31.5706287205      -29.1378994095       16.5965019074  MEMB      91              0.0000000000
     10412        91  SAPS      C22            29.5513382217      -30.2029753977       15.7896024729  MEMB      91              0.0000000000
     10413        91  SAPS      H2R            29.0121788411      -30.9758953112       16.3780094626  MEMB      91              0.0000000000
     10414        91  SAPS      H2S            28.9893679204      -29.2575876049       15.9469307664  MEMB      91              0.0000000000
     10415        91  SAPS      C3             33.2267318883      -32.8893304730       16.4646928825  MEMB      91              0.0000000000
     10416        91  SAPS      HX             32.6300650228      -33.6846352728       16.9604752386  MEMB      91              0.0000000000
     10417        91  SAPS      HY             34.2423190923      -33.1041315655       16.8606267659  MEMB      91              0.0000000000
     10418        91  SAPS      O31            33.0949076158      -32.9419527804       15.0211207580  MEMB      91              0.0000000000
     10419        91  SAPS      C31            31.9986251778      -33.4882745289       14.5057558862  MEMB      91              0.0000000000
     10420        91  SAPS      O32            31.1243892764      -34.0704778255       15.1205069827  MEMB      91              0.0000000000
     10421        91  SAPS      C32            32.0918673256      -33.3473160688       12.9686879761  MEMB      91              0.0000000000
     10422        91  SAPS      H2X            33.1290019995      -33.5941342957       12.6560322522  MEMB      91              0.0000000000
     10423        91  SAPS      H2Y            31.7625158193      -32.3666269214       12.5635983483  MEMB      91              0.0000000000
     10424        91  SAPS      C23            29.4930424628      -30.4342266537       14.2272447064  MEMB      91              0.0000000000
     10425        91  SAPS      H3R            29.4911284790      -31.5398603814       14.1181972995  MEMB      91              0.0000000000
     10426        91  SAPS      H3S            30.3336493920      -29.9968861150       13.6472151966  MEMB      91              0.0000000000
     10427        91  SAPS      C24            28.1990276096      -29.9070768416       13.5542671118  MEMB      91              0.0000000000
     10428        91  SAPS      H4R            28.2794835833      -30.1144656406       12.4657641992  MEMB      91              0.0000000000
     10429        91  SAPS      H4S            28.2587161145      -28.8117228032       13.7302150981  MEMB      91              0.0000000000
     10430        91  SAPS      C25            26.9902990946      -30.5027841108       14.1820332080  MEMB      91              0.0000000000
     10431        91  SAPS      H5R            26.7355473020      -30.0610758186       15.1567099977  MEMB      91              0.0000000000
     10432        91  SAPS      C26            26.0703551852      -31.3177782871       13.6701812203  MEMB      91              0.0000000000
     10433        91  SAPS      H6R            25.2866149610      -31.4855683604       14.4235720442  MEMB      91              0.0000000000
     10434        91  SAPS      C27            26.0834795503      -31.8431615321       12.2413164779  MEMB      91              0.0000000000
     10435        91  SAPS      H7R            27.0851985760      -31.7518676868       11.7695687254  MEMB      91              0.0000000000
     10436        91  SAPS      H7S            25.4861607493      -31.1618167365       11.5984314803  MEMB      91              0.0000000000
     10437        91  SAPS      C28            25.6370430459      -33.3378137067       12.2153622074  MEMB      91              0.0000000000
     10438        91  SAPS      H8R            24.8074047768      -33.6066793503       12.8857440853  MEMB      91              0.0000000000
     10439        91  SAPS      C29            26.1097848107      -34.3164495988       11.4884221158  MEMB      91              0.0000000000
     10440        91  SAPS      H9R            25.7152942145      -35.3180248451       11.7147505944  MEMB      91              0.0000000000
     10441        91  SAPS      C210           27.1986539059      -34.2286112158       10.4569157152  MEMB      91              0.0000000000
     10442        91  SAPS      H10R           27.6414092104      -35.2475432767       10.4650641867  MEMB      91              0.0000000000
     10443        91  SAPS      H10S           28.0205283054      -33.5654065459       10.8018835487  MEMB      91              0.0000000000
     10444        91  SAPS      C211           26.6827565223      -33.7228446671        9.1097733377  MEMB      91              0.0000000000
     10445        91  SAPS      H11R           25.9709052681      -34.4558384042        8.7023575906  MEMB      91              0.0000000000
     10446        91  SAPS      C212           26.8898761988      -32.5712211060        8.3441526439  MEMB      91              0.0000000000
     10447        91  SAPS      H12R           26.4536829299      -32.5341697827        7.3350130604  MEMB      91              0.0000000000
     10448        91  SAPS      C213           27.7582143842      -31.3542564283        8.7182631824  MEMB      91              0.0000000000
     10449        91  SAPS      H13R           27.7567957858      -31.2543212578        9.8247590442  MEMB      91              0.0000000000
     10450        91  SAPS      H13S           27.2242662639      -30.4289693244        8.4131992892  MEMB      91              0.0000000000
     10451        91  SAPS      C214           29.1781805199      -31.4098335457        8.2346276136  MEMB      91              0.0000000000
     10452        91  SAPS      H14R           29.8127026837      -32.2141291443        8.6352398629  MEMB      91              0.0000000000
     10453        91  SAPS      C215           29.8162493378      -30.4212480230        7.5186504336  MEMB      91              0.0000000000
     10454        91  SAPS      H15R           30.8987949131      -30.4721627348        7.3302285105  MEMB      91              0.0000000000
     10455        91  SAPS      C216           29.1430286836      -29.1924965956        7.0213963171  MEMB      91              0.0000000000
     10456        91  SAPS      H16R           29.8733422368      -28.3553508735        7.0336635145  MEMB      91              0.0000000000
     10457        91  SAPS      H16S           28.3864296558      -28.7517199753        7.7052056586  MEMB      91              0.0000000000
     10458        91  SAPS      C217           28.4534508545      -29.2920998454        5.6588391316  MEMB      91              0.0000000000
     10459        91  SAPS      H17R           27.9776224753      -28.3199441746        5.4081977159  MEMB      91              0.0000000000
     10460        91  SAPS      H17S           27.6689357019      -30.0769072017        5.6046676646  MEMB      91              0.0000000000
     10461        91  SAPS      C218           29.4434755335      -29.4626358824        4.4133646154  MEMB      91              0.0000000000
     10462        91  SAPS      H18R           30.1507831173      -30.2904026455        4.6343604266  MEMB      91              0.0000000000
     10463        91  SAPS      H18S           30.0744941243      -28.5499342539        4.3575756994  MEMB      91              0.0000000000
     10464        91  SAPS      C219           28.7657555156      -29.8074921879        3.0671131436  MEMB      91              0.0000000000
     10465        91  SAPS      H19R           28.1295727613      -30.7114363068        3.1788162989  MEMB      91              0.0000000000
     10466        91  SAPS      H19S           29.5613683768      -30.0368410176        2.3263573428  MEMB      91              0.0000000000
     10467        91  SAPS      C220           27.9208216416      -28.6762240592        2.4433353430  MEMB      91              0.0000000000
     10468        91  SAPS      H20R           27.4234068850      -28.9903153044        1.5008673629  MEMB      91              0.0000000000
     10469        91  SAPS      H20S           28.5403894541      -27.7905022352        2.1865225684  MEMB      91              0.0000000000
     10470        91  SAPS      H20T           27.1898246991      -28.2624238326        3.1704763605  MEMB      91              0.0000000000
     10471        91  SAPS      C33            31.1271585923      -34.4545164502       12.4609590626  MEMB      91              0.0000000000
     10472        91  SAPS      H3X            30.1057550630      -34.1962973937       12.8136331539  MEMB      91              0.0000000000
     10473        91  SAPS      H3Y            31.5634186931      -35.4065951521       12.8318287925  MEMB      91              0.0000000000
     10474        91  SAPS      C34            31.0926740467      -34.5045565215       10.9442268082  MEMB      91              0.0000000000
     10475        91  SAPS      H4X            30.9948146994      -33.4481636911       10.6144107682  MEMB      91              0.0000000000
     10476        91  SAPS      H4Y            30.1052710559      -34.8516673471       10.5715731161  MEMB      91              0.0000000000
     10477        91  SAPS      C35            32.2431867202      -35.2858261413       10.3302076497  MEMB      91              0.0000000000
     10478        91  SAPS      H5X            31.9762011372      -36.3641409584       10.3468470296  MEMB      91              0.0000000000
     10479        91  SAPS      H5Y            33.2057028297      -35.0979853207       10.8523188518  MEMB      91              0.0000000000
     10480        91  SAPS      C36            32.6030581336      -34.9819081631        8.8688691680  MEMB      91              0.0000000000
     10481        91  SAPS      H6X            31.8386036122      -35.5705303851        8.3180018346  MEMB      91              0.0000000000
     10482        91  SAPS      H6Y            33.5874134696      -35.3362910268        8.4949994401  MEMB      91              0.0000000000
     10483        91  SAPS      C37            32.6604137865      -33.5142272185        8.2752605853  MEMB      91              0.0000000000
     10484        91  SAPS      H7X            33.5897052657      -33.1126879167        8.7329773547  MEMB      91              0.0000000000
     10485        91  SAPS      H7Y            31.7633260314      -33.0397057140        8.7273480833  MEMB      91              0.0000000000
     10486        91  SAPS      C38            32.3909571287      -33.6028010457        6.7387288551  MEMB      91              0.0000000000
     10487        91  SAPS      H8X            31.3086007513      -33.8054151292        6.5911718983  MEMB      91              0.0000000000
     10488        91  SAPS      H8Y            33.0113589502      -34.3737883350        6.2337521579  MEMB      91              0.0000000000
     10489        91  SAPS      C39            32.8124163459      -32.2704277165        6.0024797434  MEMB      91              0.0000000000
     10490        91  SAPS      H9X            33.8606699877      -32.0809430185        6.3180429738  MEMB      91              0.0000000000
     10491        91  SAPS      H9Y            32.2586818511      -31.3531177965        6.2961492582  MEMB      91              0.0000000000
     10492        91  SAPS      C310           32.8079952364      -32.5003557789        4.4761646104  MEMB      91              0.0000000000
     10493        91  SAPS      H10X           33.5730443678      -33.2858384993        4.2971746574  MEMB      91              0.0000000000
     10494        91  SAPS      H10Y           33.1287555297      -31.5695041294        3.9614317718  MEMB      91              0.0000000000
     10495        91  SAPS      C311           31.4423105196      -32.8449330513        3.9329996435  MEMB      91              0.0000000000
     10496        91  SAPS      H11X           30.7083696628      -32.0111630213        3.9111087509  MEMB      91              0.0000000000
     10497        91  SAPS      H11Y           30.9044850187      -33.5748687806        4.5750728975  MEMB      91              0.0000000000
     10498        91  SAPS      C312           31.4790317312      -33.1475909687        2.4250527753  MEMB      91              0.0000000000
     10499        91  SAPS      H12X           32.0234765942      -34.0833356207        2.1754890655  MEMB      91              0.0000000000
     10500        91  SAPS      H12Y           32.0715919703      -32.3238281051        1.9727173388  MEMB      91              0.0000000000
     10501        91  SAPS      C313           30.0769668409      -33.1869403411        1.6781991898  MEMB      91              0.0000000000
     10502        91  SAPS      H13X           29.5383715098      -32.3431076552        2.1600537370  MEMB      91              0.0000000000
     10503        91  SAPS      H13Y           29.5442582131      -34.1308776209        1.9221769878  MEMB      91              0.0000000000
     10504        91  SAPS      C314           30.1472723784      -33.0546644153        0.1784117990  MEMB      91              0.0000000000
     10505        91  SAPS      H14X           30.6095305054      -33.9889717653       -0.2059172575  MEMB      91              0.0000000000
     10506        91  SAPS      H14Y           30.6662687868      -32.1000930941       -0.0534441622  MEMB      91              0.0000000000
     10507        91  SAPS      C315           28.7490065734      -32.9229615790       -0.4747039874  MEMB      91              0.0000000000
     10508        91  SAPS      H15X           28.9454852713      -32.7565289796       -1.5554520840  MEMB      91              0.0000000000
     10509        91  SAPS      H15Y           28.2843843314      -31.9955500373       -0.0767661663  MEMB      91              0.0000000000
     10510        91  SAPS      C316           27.7939165764      -34.1347271264       -0.2710818772  MEMB      91              0.0000000000
     10511        91  SAPS      H16X           27.4121196705      -34.0781215658        0.7707194919  MEMB      91              0.0000000000
     10512        91  SAPS      H16Y           28.3690572474      -35.0825224653       -0.3433186899  MEMB      91              0.0000000000
     10513        91  SAPS      C317           26.5557564643      -34.1296848984       -1.1329500641  MEMB      91              0.0000000000
     10514        91  SAPS      H17X           26.1100803436      -35.1363283527       -0.9834090421  MEMB      91              0.0000000000
     10515        91  SAPS      H17Y           26.8212389589      -33.9786343940       -2.2011381176  MEMB      91              0.0000000000
     10516        91  SAPS      C318           25.6085449814      -33.0324594072       -0.6714801806  MEMB      91              0.0000000000
     10517        91  SAPS      H18X           24.6467011693      -33.0951435084       -1.2239726751  MEMB      91              0.0000000000
     10518        91  SAPS      H18Y           26.1180438165      -32.0553076864       -0.8125702158  MEMB      91              0.0000000000
     10519        91  SAPS      H18Z           25.5069065297      -33.2605889223        0.4110847263  MEMB      91              0.0000000000
     10520        92  CHL1      C3             26.8728203948       33.3269720271       17.5816150000  MEMB      92              0.0000000000
     10521        92  CHL1      H3             26.1232856494       32.6415329492       18.0318350000  MEMB      92              0.0000000000
     10522        92  CHL1      O3             27.9947540628       33.5979420412       18.4183850000  MEMB      92              0.0000000000
     10523        92  CHL1      H3'            27.6238486988       34.2209905702       19.0475450000  MEMB      92              0.0000000000
     10524        92  CHL1      C4             27.4277026093       32.5856756323       16.3554650000  MEMB      92              0.0000000000
     10525        92  CHL1      H4A            28.3482515200       33.1211531170       16.0389750000  MEMB      92              0.0000000000
     10526        92  CHL1      H4B            27.7993105047       31.6261582547       16.7744450000  MEMB      92              0.0000000000
     10527        92  CHL1      C5             26.4874182107       32.3481962868       15.1936150000  MEMB      92              0.0000000000
     10528        92  CHL1      C6             26.3797577332       31.0893467919       14.6807450000  MEMB      92              0.0000000000
     10529        92  CHL1      H6             27.0620279526       30.3452130867       15.1175050000  MEMB      92              0.0000000000
     10530        92  CHL1      C7             25.6765087521       30.7765344797       13.4162150000  MEMB      92              0.0000000000
     10531        92  CHL1      H7A            26.2086653456       30.1121527170       12.7022650000  MEMB      92              0.0000000000
     10532        92  CHL1      H7B            24.7514526854       30.2784987196       13.7775250000  MEMB      92              0.0000000000
     10533        92  CHL1      C8             25.2783784137       32.0616094837       12.7370750000  MEMB      92              0.0000000000
     10534        92  CHL1      H8             26.2180517726       32.3282169038       12.2076750000  MEMB      92              0.0000000000
     10535        92  CHL1      C14            24.1919908204       31.8111084868       11.6990050000  MEMB      92              0.0000000000
     10536        92  CHL1      H14            23.3435237980       31.5980735772       12.3838650000  MEMB      92              0.0000000000
     10537        92  CHL1      C15            24.2032070005       30.5371600517       10.8591550000  MEMB      92              0.0000000000
     10538        92  CHL1      H15A           25.1946564094       30.4761976234       10.3615450000  MEMB      92              0.0000000000
     10539        92  CHL1      H15B           23.9601030699       29.6592312264       11.4951350000  MEMB      92              0.0000000000
     10540        92  CHL1      C16            23.0813267106       30.8207401866        9.8277650000  MEMB      92              0.0000000000
     10541        92  CHL1      H16A           23.3604826118       30.3858203863        8.8442850000  MEMB      92              0.0000000000
     10542        92  CHL1      H16B           22.2439225543       30.2623461661       10.2981650000  MEMB      92              0.0000000000
     10543        92  CHL1      C17            22.7186776471       32.3849419119        9.9375550000  MEMB      92              0.0000000000
     10544        92  CHL1      H17            21.8475768769       32.3870555684       10.6271150000  MEMB      92              0.0000000000
     10545        92  CHL1      C13            23.8331611828       32.9826672026       10.8188650000  MEMB      92              0.0000000000
     10546        92  CHL1      C18            25.0341500630       33.4369434782        9.9614450000  MEMB      92              0.0000000000
     10547        92  CHL1      H18A           25.2520850986       32.7007211687        9.1584550000  MEMB      92              0.0000000000
     10548        92  CHL1      H18B           24.6567731129       34.3423579038        9.4397750000  MEMB      92              0.0000000000
     10549        92  CHL1      H18C           25.9571801108       33.7685025164       10.4833650000  MEMB      92              0.0000000000
     10550        92  CHL1      C12            23.2645444166       34.1329471572       11.6727150000  MEMB      92              0.0000000000
     10551        92  CHL1      H12A           22.9752807069       34.9388543802       10.9647950000  MEMB      92              0.0000000000
     10552        92  CHL1      H12B           22.3691684744       33.7914243624       12.2348450000  MEMB      92              0.0000000000
     10553        92  CHL1      C11            24.2350409866       34.5357182735       12.8089850000  MEMB      92              0.0000000000
     10554        92  CHL1      H11A           25.1730299812       34.9036084775       12.3408250000  MEMB      92              0.0000000000
     10555        92  CHL1      H11B           23.7555731784       35.2630100862       13.4985250000  MEMB      92              0.0000000000
     10556        92  CHL1      C9             24.7704922069       33.2469238851       13.6108750000  MEMB      92              0.0000000000
     10557        92  CHL1      H9             23.9111654040       32.9498127436       14.2493050000  MEMB      92              0.0000000000
     10558        92  CHL1      C10            25.8773172758       33.5743226563       14.6467750000  MEMB      92              0.0000000000
     10559        92  CHL1      C19            26.8427921989       34.4951983427       14.0224450000  MEMB      92              0.0000000000
     10560        92  CHL1      H19A           27.7933817333       34.5022088829       14.5974750000  MEMB      92              0.0000000000
     10561        92  CHL1      H19B           27.1655385182       34.1290196658       13.0244150000  MEMB      92              0.0000000000
     10562        92  CHL1      H19C           26.4420206288       35.5309939044       13.9939050000  MEMB      92              0.0000000000
     10563        92  CHL1      C1             25.2949460510       34.3451713795       15.8198250000  MEMB      92              0.0000000000
     10564        92  CHL1      H1A            24.8209634495       35.3167583087       15.5635550000  MEMB      92              0.0000000000
     10565        92  CHL1      H1B            24.5390496895       33.6957359103       16.3109250000  MEMB      92              0.0000000000
     10566        92  CHL1      C2             26.2770779286       34.6451961109       16.9746250000  MEMB      92              0.0000000000
     10567        92  CHL1      H2A            25.7399493721       35.1140661742       17.8266650000  MEMB      92              0.0000000000
     10568        92  CHL1      H2B            27.0342505518       35.3817839573       16.6304850000  MEMB      92              0.0000000000
     10569        92  CHL1      C20            22.4091503715       33.0612214616        8.5382450000  MEMB      92              0.0000000000
     10570        92  CHL1      H20            23.3201536642       33.0839057786        7.9027350000  MEMB      92              0.0000000000
     10571        92  CHL1      C21            21.9685473424       34.5119484172        8.5819250000  MEMB      92              0.0000000000
     10572        92  CHL1      H21A           22.7397945766       35.2282130029        8.9375550000  MEMB      92              0.0000000000
     10573        92  CHL1      H21B           21.0534092886       34.6079091580        9.2045350000  MEMB      92              0.0000000000
     10574        92  CHL1      H21C           21.7084886403       34.7706096929        7.5332250000  MEMB      92              0.0000000000
     10575        92  CHL1      C22            21.2166391638       32.2660728749        7.8324550000  MEMB      92              0.0000000000
     10576        92  CHL1      H22A           21.2163602664       31.1555170813        7.8639350000  MEMB      92              0.0000000000
     10577        92  CHL1      H22B           20.2479383846       32.6736676964        8.1927550000  MEMB      92              0.0000000000
     10578        92  CHL1      C23            21.2230116588       32.4595616284        6.2539350000  MEMB      92              0.0000000000
     10579        92  CHL1      H23A           20.9362566658       33.5078935917        6.0235250000  MEMB      92              0.0000000000
     10580        92  CHL1      H23B           22.2640265646       32.2214087305        5.9474950000  MEMB      92              0.0000000000
     10581        92  CHL1      C24            20.2148967437       31.5948793018        5.5025950000  MEMB      92              0.0000000000
     10582        92  CHL1      H24A           20.6781879057       30.5884462591        5.5849450000  MEMB      92              0.0000000000
     10583        92  CHL1      H24B           19.1918219519       31.5553513715        5.9339750000  MEMB      92              0.0000000000
     10584        92  CHL1      C25            20.0577617569       31.7963613695        4.0004050000  MEMB      92              0.0000000000
     10585        92  CHL1      H25            21.0381356397       31.6423148764        3.5009350000  MEMB      92              0.0000000000
     10586        92  CHL1      C26            19.2594613868       30.7309008527        3.3643250000  MEMB      92              0.0000000000
     10587        92  CHL1      H26A           19.6878619985       29.7061738303        3.3913750000  MEMB      92              0.0000000000
     10588        92  CHL1      H26B           18.3513359616       30.6313906782        3.9965650000  MEMB      92              0.0000000000
     10589        92  CHL1      H26C           18.9127660445       30.8120625309        2.3119250000  MEMB      92              0.0000000000
     10590        92  CHL1      C27            19.3657788138       33.1966351181        3.6793050000  MEMB      92              0.0000000000
     10591        92  CHL1      H27A           19.9169630330       33.9593828100        4.2698250000  MEMB      92              0.0000000000
     10592        92  CHL1      H27B           19.3948546557       33.2772722945        2.5716150000  MEMB      92              0.0000000000
     10593        92  CHL1      H27C           18.2906320393       33.1912737083        3.9592150000  MEMB      92              0.0000000000
     10594        93  SAPE      N             -31.8806590338       27.0108346667       20.6126430176  MEMB      93              0.0000000000
     10595        93  SAPE      HN1           -31.2979407284       27.4592914090       19.8771662809  MEMB      93              0.0000000000
     10596        93  SAPE      HN2           -31.5162369798       27.3109295992       21.5393250067  MEMB      93              0.0000000000
     10597        93  SAPE      HN3           -31.9144354269       25.9893155860       20.4203991537  MEMB      93              0.0000000000
     10598        93  SAPE      C12           -33.2609136451       27.5015709824       20.2169618978  MEMB      93              0.0000000000
     10599        93  SAPE      H12A          -33.9948281446       26.9541302562       20.8462465765  MEMB      93              0.0000000000
     10600        93  SAPE      H12B          -33.3718662397       27.1927781644       19.1555206353  MEMB      93              0.0000000000
     10601        93  SAPE      C11           -33.4031004790       29.1029857485       20.3924347075  MEMB      93              0.0000000000
     10602        93  SAPE      H11A          -33.6053240021       29.3032737294       21.4663580280  MEMB      93              0.0000000000
     10603        93  SAPE      H11B          -34.3621740992       29.4373028689       19.9421781719  MEMB      93              0.0000000000
     10604        93  SAPE      P             -32.4507728060       31.3570470275       19.8004476253  MEMB      93              0.0000000000
     10605        93  SAPE      O13           -33.5515447953       31.7499150350       20.7332757385  MEMB      93              0.0000000000
     10606        93  SAPE      O14           -31.1486991655       32.0499714756       19.9692777340  MEMB      93              0.0000000000
     10607        93  SAPE      O12           -32.2449137229       29.8129204943       19.9391106746  MEMB      93              0.0000000000
     10608        93  SAPE      O11           -32.9129067214       31.5201402214       18.3358485838  MEMB      93              0.0000000000
     10609        93  SAPE      C1            -32.6246203991       30.4986299312       17.3577946265  MEMB      93              0.0000000000
     10610        93  SAPE      HA            -31.6679974101       29.9386966563       17.4330817844  MEMB      93              0.0000000000
     10611        93  SAPE      HB            -33.3633588143       29.6718735839       17.4289320237  MEMB      93              0.0000000000
     10612        93  SAPE      C2            -32.6542704545       31.1954016381       16.0188265287  MEMB      93              0.0000000000
     10613        93  SAPE      HS            -31.7852373211       31.8806925259       15.9214672786  MEMB      93              0.0000000000
     10614        93  SAPE      O21           -33.9025679733       31.8814732815       15.9656363682  MEMB      93              0.0000000000
     10615        93  SAPE      C21           -33.9987180585       33.0677385559       16.1436641084  MEMB      93              0.0000000000
     10616        93  SAPE      O22           -33.1379633280       33.8624645663       16.4569964236  MEMB      93              0.0000000000
     10617        93  SAPE      C22           -35.4526595442       33.4805921481       15.9180120570  MEMB      93              0.0000000000
     10618        93  SAPE      H2R           -35.9551198291       32.5534050549       15.5684717220  MEMB      93              0.0000000000
     10619        93  SAPE      H2S           -35.8218697384       33.8092941005       16.9129793068  MEMB      93              0.0000000000
     10620        93  SAPE      C3            -32.5007646811       30.2375905594       14.7719768555  MEMB      93              0.0000000000
     10621        93  SAPE      HX            -31.5764434743       29.6212612480       14.7814473663  MEMB      93              0.0000000000
     10622        93  SAPE      HY            -32.3228131635       30.8889862103       13.8897425001  MEMB      93              0.0000000000
     10623        93  SAPE      O31           -33.7365750071       29.5363020752       14.6124587264  MEMB      93              0.0000000000
     10624        93  SAPE      C31           -33.6236242744       28.2658831165       14.2244798762  MEMB      93              0.0000000000
     10625        93  SAPE      O32           -32.5721445249       27.6900526670       13.9511339547  MEMB      93              0.0000000000
     10626        93  SAPE      C32           -35.0588949999       27.5922934692       14.2588541104  MEMB      93              0.0000000000
     10627        93  SAPE      H2X           -35.2167738991       27.2675147411       15.3095272143  MEMB      93              0.0000000000
     10628        93  SAPE      H2Y           -34.9702425967       26.6695967768       13.6464059516  MEMB      93              0.0000000000
     10629        93  SAPE      C23           -35.3890509099       34.6058420188       14.8833650221  MEMB      93              0.0000000000
     10630        93  SAPE      H3R           -34.6158139891       35.2922176726       15.2899537893  MEMB      93              0.0000000000
     10631        93  SAPE      H3S           -36.3780078211       35.1002490689       14.7745215617  MEMB      93              0.0000000000
     10632        93  SAPE      C24           -34.9240346369       34.1804614762       13.4479486743  MEMB      93              0.0000000000
     10633        93  SAPE      H4R           -33.9910932799       33.5771992871       13.4439230165  MEMB      93              0.0000000000
     10634        93  SAPE      H4S           -34.6369222268       35.1531743950       12.9943885741  MEMB      93              0.0000000000
     10635        93  SAPE      C25           -36.0166465598       33.4568042966       12.7448537435  MEMB      93              0.0000000000
     10636        93  SAPE      H5R           -36.5627275060       32.8054332746       13.4430739395  MEMB      93              0.0000000000
     10637        93  SAPE      C26           -36.5683661152       33.6240967259       11.5788315084  MEMB      93              0.0000000000
     10638        93  SAPE      H6R           -37.4924133513       33.0677228756       11.3629949827  MEMB      93              0.0000000000
     10639        93  SAPE      C27           -36.1744150615       34.6920284938       10.6260330664  MEMB      93              0.0000000000
     10640        93  SAPE      H7R           -35.2308448442       35.2030787407       10.9138238261  MEMB      93              0.0000000000
     10641        93  SAPE      H7S           -37.0285002150       35.3875107551       10.4805539445  MEMB      93              0.0000000000
     10642        93  SAPE      C28           -36.0401931743       34.1901715049        9.2448676648  MEMB      93              0.0000000000
     10643        93  SAPE      H8R           -37.0374504835       34.0723476554        8.7958732805  MEMB      93              0.0000000000
     10644        93  SAPE      C29           -34.9281991179       34.0103734709        8.4874133222  MEMB      93              0.0000000000
     10645        93  SAPE      H9R           -35.0335516417       33.6752460232        7.4450174555  MEMB      93              0.0000000000
     10646        93  SAPE      C210          -33.4699017468       34.2420093994        8.8798760925  MEMB      93              0.0000000000
     10647        93  SAPE      H10R          -33.4628719400       35.0952354206        9.5914071360  MEMB      93              0.0000000000
     10648        93  SAPE      H10S          -32.7672242114       34.3401257334        8.0249263762  MEMB      93              0.0000000000
     10649        93  SAPE      C211          -32.9929428102       33.0778070861        9.7326506135  MEMB      93              0.0000000000
     10650        93  SAPE      H11R          -32.7131097057       33.4156079667       10.7414047390  MEMB      93              0.0000000000
     10651        93  SAPE      C212          -32.6851892088       31.8087965897        9.3361593562  MEMB      93              0.0000000000
     10652        93  SAPE      H12R          -32.4341385089       31.0277736527       10.0689462768  MEMB      93              0.0000000000
     10653        93  SAPE      C213          -32.7229719167       31.1299280934        7.9709088866  MEMB      93              0.0000000000
     10654        93  SAPE      H13R          -32.8428890371       31.7275299787        7.0420318726  MEMB      93              0.0000000000
     10655        93  SAPE      H13S          -33.6537811664       30.5238394429        7.9948197397  MEMB      93              0.0000000000
     10656        93  SAPE      C214          -31.5550474457       30.3350458419        7.5713852849  MEMB      93              0.0000000000
     10657        93  SAPE      H14R          -30.6911893786       30.5250990866        8.2253183100  MEMB      93              0.0000000000
     10658        93  SAPE      C215          -31.3306321822       29.5729141945        6.4424579972  MEMB      93              0.0000000000
     10659        93  SAPE      H15R          -30.3112949990       29.2291845662        6.2126723001  MEMB      93              0.0000000000
     10660        93  SAPE      C216          -32.3663189039       29.3945724822        5.3841416171  MEMB      93              0.0000000000
     10661        93  SAPE      H16R          -33.3017654358       29.9414880938        5.6293850438  MEMB      93              0.0000000000
     10662        93  SAPE      H16S          -32.6137203828       28.3139910156        5.3102687084  MEMB      93              0.0000000000
     10663        93  SAPE      C217          -31.8795464648       29.9095682565        3.9757409628  MEMB      93              0.0000000000
     10664        93  SAPE      H17R          -32.5796364726       29.4141730798        3.2694995800  MEMB      93              0.0000000000
     10665        93  SAPE      H17S          -30.8496066380       29.5709698960        3.7330559831  MEMB      93              0.0000000000
     10666        93  SAPE      C218          -32.0339701992       31.4458371586        3.7001108133  MEMB      93              0.0000000000
     10667        93  SAPE      H18R          -31.4269160869       32.0748366794        4.3857980975  MEMB      93              0.0000000000
     10668        93  SAPE      H18S          -33.1009469095       31.7048969613        3.8697277703  MEMB      93              0.0000000000
     10669        93  SAPE      C219          -31.6387677862       31.8764886740        2.2234357006  MEMB      93              0.0000000000
     10670        93  SAPE      H19R          -32.1365151808       31.0038505728        1.7490194364  MEMB      93              0.0000000000
     10671        93  SAPE      H19S          -30.5377877961       31.7535285884        2.1395016722  MEMB      93              0.0000000000
     10672        93  SAPE      C220          -32.2408569890       33.2062807121        1.8361143529  MEMB      93              0.0000000000
     10673        93  SAPE      H20R          -33.2831852224       33.4197978795        2.1559319550  MEMB      93              0.0000000000
     10674        93  SAPE      H20S          -32.2383228759       33.3000422896        0.7290801087  MEMB      93              0.0000000000
     10675        93  SAPE      H20T          -31.5625206379       34.0322883349        2.1392516124  MEMB      93              0.0000000000
     10676        93  SAPE      C33           -36.1684470784       28.4692158732       13.6822561549  MEMB      93              0.0000000000
     10677        93  SAPE      H3X           -36.1543539076       29.4435308493       14.2159534778  MEMB      93              0.0000000000
     10678        93  SAPE      H3Y           -37.1645943953       28.0167306679       13.8753061580  MEMB      93              0.0000000000
     10679        93  SAPE      C34           -35.8516209723       28.8519448999       12.1814873810  MEMB      93              0.0000000000
     10680        93  SAPE      H4X           -35.9683005976       27.9748313088       11.5096403054  MEMB      93              0.0000000000
     10681        93  SAPE      H4Y           -34.7822030005       29.1137086837       12.0326728994  MEMB      93              0.0000000000
     10682        93  SAPE      C35           -36.8040633389       29.9667146752       11.6944224280  MEMB      93              0.0000000000
     10683        93  SAPE      H5X           -36.8290532008       30.8525864352       12.3644432113  MEMB      93              0.0000000000
     10684        93  SAPE      H5Y           -37.8173938871       29.5574621211       11.4944359343  MEMB      93              0.0000000000
     10685        93  SAPE      C36           -36.5451869353       30.5339921027       10.2530391496  MEMB      93              0.0000000000
     10686        93  SAPE      H6X           -35.6035543720       31.1228054901       10.2222540891  MEMB      93              0.0000000000
     10687        93  SAPE      H6Y           -37.3957700229       31.2074910717       10.0138146577  MEMB      93              0.0000000000
     10688        93  SAPE      C37           -36.3828042619       29.4953908390        9.1596367631  MEMB      93              0.0000000000
     10689        93  SAPE      H7X           -37.1433254970       28.6855008567        9.1570409204  MEMB      93              0.0000000000
     10690        93  SAPE      H7Y           -35.3872978754       29.0302726352        9.3238101161  MEMB      93              0.0000000000
     10691        93  SAPE      C38           -36.4915299655       30.1200481259        7.6801206021  MEMB      93              0.0000000000
     10692        93  SAPE      H8X           -35.7726807176       30.9510374082        7.5157015630  MEMB      93              0.0000000000
     10693        93  SAPE      H8Y           -37.4825100391       30.6177536979        7.6125307186  MEMB      93              0.0000000000
     10694        93  SAPE      C39           -36.3841050727       29.0756137220        6.5586548067  MEMB      93              0.0000000000
     10695        93  SAPE      H9X           -37.2490759727       28.3803166777        6.5066156210  MEMB      93              0.0000000000
     10696        93  SAPE      H9Y           -35.4974099236       28.4130821197        6.6542837216  MEMB      93              0.0000000000
     10697        93  SAPE      C310          -36.5813792286       29.7971362852        5.2106996215  MEMB      93              0.0000000000
     10698        93  SAPE      H10X          -35.8650714132       30.6388246202        5.0976293759  MEMB      93              0.0000000000
     10699        93  SAPE      H10Y          -37.5668203506       30.2981407881        5.3212501717  MEMB      93              0.0000000000
     10700        93  SAPE      C311          -36.7191771445       28.8722951059        3.9433261543  MEMB      93              0.0000000000
     10701        93  SAPE      H11X          -36.5990877313       29.5487585070        3.0702299043  MEMB      93              0.0000000000
     10702        93  SAPE      H11Y          -37.7602434750       28.4910186985        4.0149517621  MEMB      93              0.0000000000
     10703        93  SAPE      C312          -35.6940639291       27.7165591719        3.7426339435  MEMB      93              0.0000000000
     10704        93  SAPE      H12X          -35.9029154677       26.9702502070        4.5387022986  MEMB      93              0.0000000000
     10705        93  SAPE      H12Y          -34.6387165949       28.0348636753        3.8813609162  MEMB      93              0.0000000000
     10706        93  SAPE      C313          -35.8587319869       26.8640876066        2.4665306558  MEMB      93              0.0000000000
     10707        93  SAPE      H13X          -36.9271952986       26.5599465896        2.4808737666  MEMB      93              0.0000000000
     10708        93  SAPE      H13Y          -35.2234028271       25.9601429713        2.5829850716  MEMB      93              0.0000000000
     10709        93  SAPE      C314          -35.4001450431       27.4933988534        1.1097854030  MEMB      93              0.0000000000
     10710        93  SAPE      H14X          -35.8734999902       28.4948551830        1.0241072291  MEMB      93              0.0000000000
     10711        93  SAPE      H14Y          -35.8086637489       26.7684152660        0.3736940196  MEMB      93              0.0000000000
     10712        93  SAPE      C315          -33.8721844916       27.5982759444        0.8580793709  MEMB      93              0.0000000000
     10713        93  SAPE      H15X          -33.4836582194       26.5641665546        0.7398182464  MEMB      93              0.0000000000
     10714        93  SAPE      H15Y          -33.3401742366       28.1387837687        1.6699515340  MEMB      93              0.0000000000
     10715        93  SAPE      C316          -33.6202249675       28.3372206307       -0.4738975079  MEMB      93              0.0000000000
     10716        93  SAPE      H16X          -34.4894080181       28.0638301117       -1.1095860379  MEMB      93              0.0000000000
     10717        93  SAPE      H16Y          -32.7629460708       27.9528590499       -1.0669065656  MEMB      93              0.0000000000
     10718        93  SAPE      C317          -33.4851030024       29.8848299635       -0.4365126001  MEMB      93              0.0000000000
     10719        93  SAPE      H17X          -32.4981725981       30.1879848543       -0.0261655900  MEMB      93              0.0000000000
     10720        93  SAPE      H17Y          -34.3574212613       30.1078837061        0.2143540522  MEMB      93              0.0000000000
     10721        93  SAPE      C318          -33.6305845569       30.5681260201       -1.7974857292  MEMB      93              0.0000000000
     10722        93  SAPE      H18X          -34.7069947460       30.6594646535       -2.0569444192  MEMB      93              0.0000000000
     10723        93  SAPE      H18Y          -33.1040148788       30.1100225044       -2.6618849834  MEMB      93              0.0000000000
     10724        93  SAPE      H18Z          -33.1452041798       31.5625311172       -1.6980606420  MEMB      93              0.0000000000
     10725        94  SAPS      N             -36.3329755421      -28.8473947134       18.1044349444  MEMB      94              0.0000000000
     10726        94  SAPS      HN1           -36.5928303625      -29.6653422003       17.5170362013  MEMB      94              0.0000000000
     10727        94  SAPS      HN2           -36.7422987917      -28.0407756163       17.5911903499  MEMB      94              0.0000000000
     10728        94  SAPS      HN3           -35.3288037549      -28.5782583930       18.0760695391  MEMB      94              0.0000000000
     10729        94  SAPS      C12           -36.6844306447      -29.0082214020       19.5621485534  MEMB      94              0.0000000000
     10730        94  SAPS      H12A          -35.9275891780      -28.5130740291       20.1524197560  MEMB      94              0.0000000000
     10731        94  SAPS      C13           -38.0241796738      -28.3965093577       19.9594892152  MEMB      94              0.0000000000
     10732        94  SAPS      O13A          -38.8207231767      -27.9069459022       19.1181643327  MEMB      94              0.0000000000
     10733        94  SAPS      O13B          -38.3031266942      -28.3767620278       21.1770397654  MEMB      94              0.0000000000
     10734        94  SAPS      C11           -36.7739042465      -30.4538861659       19.9680768843  MEMB      94              0.0000000000
     10735        94  SAPS      H11A          -37.5673717921      -30.9735948197       19.3896020314  MEMB      94              0.0000000000
     10736        94  SAPS      H11B          -37.0312182057      -30.4679683791       21.0487767396  MEMB      94              0.0000000000
     10737        94  SAPS      P             -34.2710080750      -30.9475709130       20.5412247569  MEMB      94              0.0000000000
     10738        94  SAPS      O13           -34.6158205281      -29.9757452195       21.5744317120  MEMB      94              0.0000000000
     10739        94  SAPS      O14           -33.6156631073      -32.2045524274       20.9305026358  MEMB      94              0.0000000000
     10740        94  SAPS      O12           -35.5693438543      -31.2417481744       19.7013476259  MEMB      94              0.0000000000
     10741        94  SAPS      O11           -33.4225610084      -30.2848805911       19.3631395846  MEMB      94              0.0000000000
     10742        94  SAPS      C1            -33.1314117605      -30.9986181512       18.1737205251  MEMB      94              0.0000000000
     10743        94  SAPS      HA            -32.8653983059      -32.0371652317       18.4652300195  MEMB      94              0.0000000000
     10744        94  SAPS      HB            -34.0616397923      -31.0448221092       17.5680290767  MEMB      94              0.0000000000
     10745        94  SAPS      C2            -32.0110475189      -30.2651400322       17.4183234790  MEMB      94              0.0000000000
     10746        94  SAPS      HS            -31.2392710884      -30.0098891880       18.1756405899  MEMB      94              0.0000000000
     10747        94  SAPS      O21           -32.4349531772      -28.9494874524       16.9137641175  MEMB      94              0.0000000000
     10748        94  SAPS      C21           -31.5293764522      -28.2050168521       16.4295821971  MEMB      94              0.0000000000
     10749        94  SAPS      O22           -30.3299163843      -28.3503785506       16.4524337047  MEMB      94              0.0000000000
     10750        94  SAPS      C22           -32.1632656259      -26.9211298229       15.9726865320  MEMB      94              0.0000000000
     10751        94  SAPS      H2R           -32.2030110157      -26.2002997867       16.8171656833  MEMB      94              0.0000000000
     10752        94  SAPS      H2S           -31.5906446118      -26.3974300127       15.1775983924  MEMB      94              0.0000000000
     10753        94  SAPS      C3            -31.4745364860      -31.0984421333       16.1642241381  MEMB      94              0.0000000000
     10754        94  SAPS      HX            -31.0679208249      -32.0435206798       16.5835222102  MEMB      94              0.0000000000
     10755        94  SAPS      HY            -30.5407110758      -30.6228442042       15.7953099378  MEMB      94              0.0000000000
     10756        94  SAPS      O31           -32.4624341483      -31.2128563463       15.1646030314  MEMB      94              0.0000000000
     10757        94  SAPS      C31           -32.7391830338      -32.4109607415       14.7255759007  MEMB      94              0.0000000000
     10758        94  SAPS      O32           -32.0958651160      -33.4405079871       14.8772609550  MEMB      94              0.0000000000
     10759        94  SAPS      C32           -33.9093442042      -32.1487888485       13.7853135167  MEMB      94              0.0000000000
     10760        94  SAPS      H2X           -33.5505430282      -32.1324989405       12.7339728296  MEMB      94              0.0000000000
     10761        94  SAPS      H2Y           -34.5354607063      -31.2318935742       13.8253416958  MEMB      94              0.0000000000
     10762        94  SAPS      C23           -33.6536181603      -27.1369748478       15.4963725037  MEMB      94              0.0000000000
     10763        94  SAPS      H3R           -34.2172632155      -27.7300564121       16.2479575790  MEMB      94              0.0000000000
     10764        94  SAPS      H3S           -33.4635331558      -27.6653680875       14.5377335190  MEMB      94              0.0000000000
     10765        94  SAPS      C24           -34.3886072869      -25.7877132160       15.1977649739  MEMB      94              0.0000000000
     10766        94  SAPS      H4R           -33.7600729892      -25.1442689453       14.5456568806  MEMB      94              0.0000000000
     10767        94  SAPS      H4S           -34.3312871151      -25.2137670577       16.1473026248  MEMB      94              0.0000000000
     10768        94  SAPS      C25           -35.7844584730      -25.6893572086       14.6039681738  MEMB      94              0.0000000000
     10769        94  SAPS      H5R           -36.5974728035      -25.9033950531       15.3133305207  MEMB      94              0.0000000000
     10770        94  SAPS      C26           -36.0375364015      -25.6922900241       13.2295943244  MEMB      94              0.0000000000
     10771        94  SAPS      H6R           -37.0953279600      -25.6101326024       12.9392034095  MEMB      94              0.0000000000
     10772        94  SAPS      C27           -34.9767766764      -25.7101785412       12.1261015728  MEMB      94              0.0000000000
     10773        94  SAPS      H7R           -35.4069939824      -26.1861972944       11.2191067195  MEMB      94              0.0000000000
     10774        94  SAPS      H7S           -34.1754616140      -26.3608129399       12.5370641621  MEMB      94              0.0000000000
     10775        94  SAPS      C28           -34.3486444522      -24.3690894438       11.7920040178  MEMB      94              0.0000000000
     10776        94  SAPS      H8R           -34.4554996603      -23.4531894975       12.3917609643  MEMB      94              0.0000000000
     10777        94  SAPS      C29           -33.6775786382      -24.1648699455       10.6246086248  MEMB      94              0.0000000000
     10778        94  SAPS      H9R           -33.3079861521      -23.1557907725       10.3897462295  MEMB      94              0.0000000000
     10779        94  SAPS      C210          -33.3995751493      -25.1417981556        9.4651970714  MEMB      94              0.0000000000
     10780        94  SAPS      H10R          -33.9890788054      -26.0763670758        9.5809009741  MEMB      94              0.0000000000
     10781        94  SAPS      H10S          -32.3651129167      -25.5350018388        9.5631752529  MEMB      94              0.0000000000
     10782        94  SAPS      C211          -33.7061468982      -24.5472461281        8.1044766104  MEMB      94              0.0000000000
     10783        94  SAPS      H11R          -34.3908705245      -23.7053266354        8.2842691574  MEMB      94              0.0000000000
     10784        94  SAPS      C212          -33.2224678535      -24.8048900872        6.9182151308  MEMB      94              0.0000000000
     10785        94  SAPS      H12R          -33.5190430310      -24.3011645947        5.9863868735  MEMB      94              0.0000000000
     10786        94  SAPS      C213          -32.1856101910      -25.8743320805        6.6709695959  MEMB      94              0.0000000000
     10787        94  SAPS      H13R          -32.6236905625      -26.8901653917        6.5685520459  MEMB      94              0.0000000000
     10788        94  SAPS      H13S          -31.4550120744      -25.9949178468        7.4992244845  MEMB      94              0.0000000000
     10789        94  SAPS      C214          -31.4709135688      -25.6640792895        5.3455102529  MEMB      94              0.0000000000
     10790        94  SAPS      H14R          -30.3967494628      -25.5624389891        5.5596146661  MEMB      94              0.0000000000
     10791        94  SAPS      C215          -31.8425587324      -25.7189971778        4.0627840722  MEMB      94              0.0000000000
     10792        94  SAPS      H15R          -31.1229999072      -25.5548374978        3.2471340866  MEMB      94              0.0000000000
     10793        94  SAPS      C216          -33.1666420502      -26.1024245477        3.4950927720  MEMB      94              0.0000000000
     10794        94  SAPS      H16R          -33.6474767676      -25.2117418631        3.0370501350  MEMB      94              0.0000000000
     10795        94  SAPS      H16S          -33.7887586920      -26.5011810443        4.3247222363  MEMB      94              0.0000000000
     10796        94  SAPS      C217          -33.1817050764      -27.2075390617        2.4373356329  MEMB      94              0.0000000000
     10797        94  SAPS      H17R          -34.1900693578      -27.6228741216        2.2251583037  MEMB      94              0.0000000000
     10798        94  SAPS      H17S          -32.4720998043      -28.0129615687        2.7238230660  MEMB      94              0.0000000000
     10799        94  SAPS      C218          -32.6596603177      -26.6999881741        1.1041061983  MEMB      94              0.0000000000
     10800        94  SAPS      H18R          -31.7632047469      -26.0460217319        1.1590309097  MEMB      94              0.0000000000
     10801        94  SAPS      H18S          -33.4980704843      -26.0494758606        0.7751327182  MEMB      94              0.0000000000
     10802        94  SAPS      C219          -32.5632914408      -27.8537956641        0.1370822061  MEMB      94              0.0000000000
     10803        94  SAPS      H19R          -33.5562698677      -28.3507616972        0.1736784747  MEMB      94              0.0000000000
     10804        94  SAPS      H19S          -31.8121714366      -28.5929375566        0.4889476149  MEMB      94              0.0000000000
     10805        94  SAPS      C220          -32.1089636236      -27.3570785869       -1.2112366722  MEMB      94              0.0000000000
     10806        94  SAPS      H20R          -32.9370532824      -26.7985717251       -1.6977136576  MEMB      94              0.0000000000
     10807        94  SAPS      H20S          -31.9123662886      -28.2695961274       -1.8137171538  MEMB      94              0.0000000000
     10808        94  SAPS      H20T          -31.2357845680      -26.6704542573       -1.2318915655  MEMB      94              0.0000000000
     10809        94  SAPS      C33           -34.8381666258      -33.4445224924       13.9584060286  MEMB      94              0.0000000000
     10810        94  SAPS      H3X           -34.3526781500      -34.4081162922       14.2231861123  MEMB      94              0.0000000000
     10811        94  SAPS      H3Y           -35.2212388717      -33.5453187504       12.9204191454  MEMB      94              0.0000000000
     10812        94  SAPS      C34           -35.8658189936      -33.2116881785       15.0827846742  MEMB      94              0.0000000000
     10813        94  SAPS      H4X           -35.2944900969      -33.0913603432       16.0279964287  MEMB      94              0.0000000000
     10814        94  SAPS      H4Y           -36.4659172659      -34.1418324578       15.1778357304  MEMB      94              0.0000000000
     10815        94  SAPS      C35           -36.6816128318      -31.8579363855       14.9820208088  MEMB      94              0.0000000000
     10816        94  SAPS      H5X           -36.1369419912      -30.9099338523       15.1793682191  MEMB      94              0.0000000000
     10817        94  SAPS      H5Y           -37.5131203917      -32.0131200074       15.7023223166  MEMB      94              0.0000000000
     10818        94  SAPS      C36           -37.1356211116      -31.5506211698       13.5688246444  MEMB      94              0.0000000000
     10819        94  SAPS      H6X           -37.9881332662      -32.2127305941       13.3058510070  MEMB      94              0.0000000000
     10820        94  SAPS      H6Y           -36.3515520988      -31.6926893051       12.7946328989  MEMB      94              0.0000000000
     10821        94  SAPS      C37           -37.6737127441      -30.1322138783       13.5080521514  MEMB      94              0.0000000000
     10822        94  SAPS      H7X           -36.7233309537      -29.5883805752       13.6960431108  MEMB      94              0.0000000000
     10823        94  SAPS      H7Y           -38.4607992072      -29.8861089508       14.2525308910  MEMB      94              0.0000000000
     10824        94  SAPS      C38           -38.1807139839      -29.5725056839       12.1238780444  MEMB      94              0.0000000000
     10825        94  SAPS      H8X           -38.4946988154      -28.5109949206       12.2183726227  MEMB      94              0.0000000000
     10826        94  SAPS      H8Y           -39.0267785197      -30.2386150027       11.8503929481  MEMB      94              0.0000000000
     10827        94  SAPS      C39           -37.0980633123      -29.5680369861       10.9889346190  MEMB      94              0.0000000000
     10828        94  SAPS      H9X           -37.0057106399      -30.6319684253       10.6825985900  MEMB      94              0.0000000000
     10829        94  SAPS      H9Y           -36.1354390193      -29.2539503941       11.4461275719  MEMB      94              0.0000000000
     10830        94  SAPS      C310          -37.4511291648      -28.6486940929        9.8286734534  MEMB      94              0.0000000000
     10831        94  SAPS      H10X          -37.3657058812      -27.5949900396       10.1703335647  MEMB      94              0.0000000000
     10832        94  SAPS      H10Y          -38.4813824279      -28.8792602877        9.4826410737  MEMB      94              0.0000000000
     10833        94  SAPS      C311          -36.4261034103      -28.7941923958        8.6883621697  MEMB      94              0.0000000000
     10834        94  SAPS      H11X          -36.2570418221      -29.8829114485        8.5454275311  MEMB      94              0.0000000000
     10835        94  SAPS      H11Y          -35.4979451689      -28.2170092966        8.8876182417  MEMB      94              0.0000000000
     10836        94  SAPS      C312          -37.0422388350      -28.4436836227        7.3159058546  MEMB      94              0.0000000000
     10837        94  SAPS      H12X          -37.6124662982      -27.4919682963        7.2575996005  MEMB      94              0.0000000000
     10838        94  SAPS      H12Y          -37.7335670694      -29.2607069241        7.0178130654  MEMB      94              0.0000000000
     10839        94  SAPS      C313          -35.9523717138      -28.1863175826        6.1823191783  MEMB      94              0.0000000000
     10840        94  SAPS      H13X          -35.3166065236      -27.3652819569        6.5773180280  MEMB      94              0.0000000000
     10841        94  SAPS      H13Y          -36.4689682575      -27.8270140267        5.2667048411  MEMB      94              0.0000000000
     10842        94  SAPS      C314          -34.9778756408      -29.2625092254        5.8964905745  MEMB      94              0.0000000000
     10843        94  SAPS      H14X          -34.4983184552      -29.6030014314        6.8390467435  MEMB      94              0.0000000000
     10844        94  SAPS      H14Y          -34.1723681623      -28.9136669130        5.2154715193  MEMB      94              0.0000000000
     10845        94  SAPS      C315          -35.5774005738      -30.6615170880        5.3634144613  MEMB      94              0.0000000000
     10846        94  SAPS      H15X          -36.1493688103      -31.2408188971        6.1194458733  MEMB      94              0.0000000000
     10847        94  SAPS      H15Y          -34.7332269337      -31.3238871039        5.0753906155  MEMB      94              0.0000000000
     10848        94  SAPS      C316          -36.5144491297      -30.4301105736        4.1473016288  MEMB      94              0.0000000000
     10849        94  SAPS      H16X          -37.3473668891      -29.8580943082        4.6092174461  MEMB      94              0.0000000000
     10850        94  SAPS      H16Y          -36.8990888606      -31.4226500246        3.8291207907  MEMB      94              0.0000000000
     10851        94  SAPS      C317          -35.8384316948      -29.6489203572        3.0302211893  MEMB      94              0.0000000000
     10852        94  SAPS      H17X          -34.7911687429      -29.9944222868        2.8953531473  MEMB      94              0.0000000000
     10853        94  SAPS      H17Y          -35.6404412662      -28.6457738502        3.4647524610  MEMB      94              0.0000000000
     10854        94  SAPS      C318          -36.6134942628      -29.5927485149        1.6717182284  MEMB      94              0.0000000000
     10855        94  SAPS      H18X          -36.1522643026      -28.9443045444        0.8964073258  MEMB      94              0.0000000000
     10856        94  SAPS      H18Y          -37.6045197607      -29.1333075182        1.8744589055  MEMB      94              0.0000000000
     10857        94  SAPS      H18Z          -36.7689659440      -30.6016680042        1.2332765224  MEMB      94              0.0000000000
     10858        95  OSM       N             -30.9779037467      -35.4136644638       21.2690614831  MEMB      95              0.0000000000
     10859        95  OSM       C15           -31.1885045022      -34.6872799842       19.9843643728  MEMB      95              0.0000000000
     10860        95  OSM       H15A          -32.2243521384      -34.3858934155       20.0352162659  MEMB      95              0.0000000000
     10861        95  OSM       H15B          -30.9048798499      -35.2180201011       19.0875522959  MEMB      95              0.0000000000
     10862        95  OSM       H15C          -30.7029181741      -33.7323636914       20.1212621037  MEMB      95              0.0000000000
     10863        95  OSM       C14           -31.2329933509      -36.9156956461       21.1158900607  MEMB      95              0.0000000000
     10864        95  OSM       H14A          -32.2437400681      -37.1262640130       20.7989484393  MEMB      95              0.0000000000
     10865        95  OSM       H14B          -30.9362071193      -37.2869352967       22.0856834140  MEMB      95              0.0000000000
     10866        95  OSM       H14C          -30.6093706631      -37.1971025851       20.2802435455  MEMB      95              0.0000000000
     10867        95  OSM       C13           -29.5679024476      -35.1803906622       21.6259840940  MEMB      95              0.0000000000
     10868        95  OSM       H13A          -29.0737807340      -35.6855866027       20.8092705548  MEMB      95              0.0000000000
     10869        95  OSM       H13B          -29.2673624807      -35.5925237239       22.5779410504  MEMB      95              0.0000000000
     10870        95  OSM       H13C          -29.3786288300      -34.1232560861       21.7401867820  MEMB      95              0.0000000000
     10871        95  OSM       C12           -32.0398364622      -34.8499581763       22.2267254648  MEMB      95              0.0000000000
     10872        95  OSM       H12A          -32.2269608991      -33.8280841333       21.9315002319  MEMB      95              0.0000000000
     10873        95  OSM       H12B          -31.6504592751      -34.7877915679       23.2321709003  MEMB      95              0.0000000000
     10874        95  OSM       C11           -33.4386696306      -35.5729840721       22.2472310322  MEMB      95              0.0000000000
     10875        95  OSM       H11A          -33.9527596145      -35.1441524841       23.1338741957  MEMB      95              0.0000000000
     10876        95  OSM       H11B          -33.2417656361      -36.6079516804       22.5999232601  MEMB      95              0.0000000000
     10877        95  OSM       P             -35.3661314893      -34.9263223382       20.5333157684  MEMB      95              0.0000000000
     10878        95  OSM       O13           -36.0770685148      -35.9994285929       19.8110661198  MEMB      95              0.0000000000
     10879        95  OSM       O14           -36.0136266166      -34.2797523083       21.6671214864  MEMB      95              0.0000000000
     10880        95  OSM       O11           -34.8846783569      -33.8688805906       19.5586839069  MEMB      95              0.0000000000
     10881        95  OSM       O12           -33.9887285300      -35.4469101349       20.9605562138  MEMB      95              0.0000000000
     10882        95  OSM       C1S           -34.3275517293      -34.1209868567       18.2867660519  MEMB      95              0.0000000000
     10883        95  OSM       H1S           -34.2607249118      -35.2055995393       18.0555290202  MEMB      95              0.0000000000
     10884        95  OSM       H1T           -33.3168924964      -33.6615511672       18.3292834119  MEMB      95              0.0000000000
     10885        95  OSM       NF            -34.4067818418      -33.8701021958       15.8536398158  MEMB      95              0.0000000000
     10886        95  OSM       HNF           -33.7398202979      -33.2208246841       15.4964141311  MEMB      95              0.0000000000
     10887        95  OSM       C2S           -35.1012875785      -33.4939954155       17.1047515642  MEMB      95              0.0000000000
     10888        95  OSM       H2S           -36.1516025274      -33.8535607758       17.0614813425  MEMB      95              0.0000000000
     10889        95  OSM       C3S           -35.1360082173      -31.9734815485       17.3136944113  MEMB      95              0.0000000000
     10890        95  OSM       H3S           -34.0811439169      -31.6715416648       17.4880919868  MEMB      95              0.0000000000
     10891        95  OSM       O3            -35.9564474488      -31.4277051836       18.3826397908  MEMB      95              0.0000000000
     10892        95  OSM       HO3           -36.1474767748      -32.2299515660       18.8740751717  MEMB      95              0.0000000000
     10893        95  OSM       C4S           -35.6587293309      -31.3238495617       16.0729259792  MEMB      95              0.0000000000
     10894        95  OSM       H4S           -36.7137292572      -31.4774312593       15.8020234045  MEMB      95              0.0000000000
     10895        95  OSM       C5S           -34.8927893759      -30.6484990869       15.1861265008  MEMB      95              0.0000000000
     10896        95  OSM       H5S           -33.8046224255      -30.4990762655       15.2458402263  MEMB      95              0.0000000000
     10897        95  OSM       C6S           -35.2817460267      -29.9894099319       13.8742999720  MEMB      95              0.0000000000
     10898        95  OSM       H6S           -34.4704227662      -29.2644680499       13.6495000119  MEMB      95              0.0000000000
     10899        95  OSM       H6T           -36.1912010709      -29.3604862129       13.9823137202  MEMB      95              0.0000000000
     10900        95  OSM       C7S           -35.4020605154      -30.8314287951       12.5792258635  MEMB      95              0.0000000000
     10901        95  OSM       H7S           -34.6045066517      -31.6032233574       12.5286098807  MEMB      95              0.0000000000
     10902        95  OSM       H7T           -35.1766984969      -30.0919068455       11.7813283163  MEMB      95              0.0000000000
     10903        95  OSM       C8S           -36.6957877118      -31.6297703241       12.3071635371  MEMB      95              0.0000000000
     10904        95  OSM       H8S           -37.5638949812      -30.9498640347       12.4429524634  MEMB      95              0.0000000000
     10905        95  OSM       H8T           -36.7987350099      -32.3673412081       13.1316098639  MEMB      95              0.0000000000
     10906        95  OSM       C9S           -36.6983371185      -32.1896944797       10.8463808385  MEMB      95              0.0000000000
     10907        95  OSM       H9S           -36.6927741799      -31.4142616676       10.0507717363  MEMB      95              0.0000000000
     10908        95  OSM       H9T           -37.6596744013      -32.7251019770       10.6931151186  MEMB      95              0.0000000000
     10909        95  OSM       C10S          -35.5137439504      -33.1891611306       10.5069128920  MEMB      95              0.0000000000
     10910        95  OSM       H10S          -35.4059571856      -33.9073576630       11.3476839897  MEMB      95              0.0000000000
     10911        95  OSM       H10T          -34.5436065220      -32.6478316524       10.5177186901  MEMB      95              0.0000000000
     10912        95  OSM       C11S          -35.6931034917      -33.9760325711        9.2264201190  MEMB      95              0.0000000000
     10913        95  OSM       H11S          -36.6033683562      -34.6112095214        9.1785765029  MEMB      95              0.0000000000
     10914        95  OSM       H11T          -34.8663060909      -34.7074441943        9.1008648305  MEMB      95              0.0000000000
     10915        95  OSM       C12S          -35.7529963348      -32.9922133264        8.0301029357  MEMB      95              0.0000000000
     10916        95  OSM       H12S          -34.9179165264      -32.2772813743        8.1908357673  MEMB      95              0.0000000000
     10917        95  OSM       H12T          -36.6773658313      -32.3965170264        8.1882422396  MEMB      95              0.0000000000
     10918        95  OSM       C13S          -35.6569410673      -33.5317832159        6.5479977751  MEMB      95              0.0000000000
     10919        95  OSM       H13S          -35.1359994512      -32.7631640310        5.9379439858  MEMB      95              0.0000000000
     10920        95  OSM       H13T          -36.6180014477      -33.8439263336        6.0862070471  MEMB      95              0.0000000000
     10921        95  OSM       C14S          -34.6504291460      -34.7210095850        6.3594087562  MEMB      95              0.0000000000
     10922        95  OSM       H14S          -34.9646831682      -35.5062481837        7.0798013224  MEMB      95              0.0000000000
     10923        95  OSM       H14T          -33.5705147128      -34.5407155988        6.5480880247  MEMB      95              0.0000000000
     10924        95  OSM       C15S          -34.7608354820      -35.4322698976        4.9719029308  MEMB      95              0.0000000000
     10925        95  OSM       H15S          -35.8444404384      -35.6668136822        4.9004149980  MEMB      95              0.0000000000
     10926        95  OSM       H15T          -34.2684305680      -36.4281712960        4.9781427972  MEMB      95              0.0000000000
     10927        95  OSM       C16S          -34.2938497025      -34.5620800684        3.7775004438  MEMB      95              0.0000000000
     10928        95  OSM       H16S          -33.2214789750      -34.3644627674        3.9903132763  MEMB      95              0.0000000000
     10929        95  OSM       H16T          -34.8629458531      -33.6124439254        3.8704613971  MEMB      95              0.0000000000
     10930        95  OSM       C17S          -34.5744102338      -35.0498200177        2.3158001757  MEMB      95              0.0000000000
     10931        95  OSM       H17S          -34.6462202446      -36.1571622327        2.3701826626  MEMB      95              0.0000000000
     10932        95  OSM       H17T          -33.7270873509      -34.8093306429        1.6386509991  MEMB      95              0.0000000000
     10933        95  OSM       C18S          -35.8158287063      -34.6087281782        1.5446483771  MEMB      95              0.0000000000
     10934        95  OSM       H18S          -36.7112234230      -34.5679956797        2.2011004189  MEMB      95              0.0000000000
     10935        95  OSM       H18T          -36.1102439081      -35.2766111380        0.7070474109  MEMB      95              0.0000000000
     10936        95  OSM       H18U          -35.5871082566      -33.5712447332        1.2196305767  MEMB      95              0.0000000000
     10937        95  OSM       C1F           -34.4004194841      -35.2105816076       15.5452320801  MEMB      95              0.0000000000
     10938        95  OSM       OF            -35.0172411142      -36.1114803505       16.1207497503  MEMB      95              0.0000000000
     10939        95  OSM       C2F           -33.4090219629      -35.4820557933       14.4852155469  MEMB      95              0.0000000000
     10940        95  OSM       H2F           -32.4989013641      -35.8117550319       15.0304678148  MEMB      95              0.0000000000
     10941        95  OSM       H2G           -33.2895392597      -34.6125298915       13.8040621414  MEMB      95              0.0000000000
     10942        95  OSM       C3F           -34.0240343134      -36.6289308368       13.6435127841  MEMB      95              0.0000000000
     10943        95  OSM       H3F           -35.0713586967      -36.4339037436       13.3282396836  MEMB      95              0.0000000000
     10944        95  OSM       H3G           -33.9600772626      -37.5801863668       14.2139015311  MEMB      95              0.0000000000
     10945        95  OSM       C4F           -33.2799582509      -36.9363088138       12.3572272502  MEMB      95              0.0000000000
     10946        95  OSM       H4F           -32.3027672047      -37.4109620452       12.5898704739  MEMB      95              0.0000000000
     10947        95  OSM       H4G           -33.0885010229      -35.9765913519       11.8312930532  MEMB      95              0.0000000000
     10948        95  OSM       C5F           -33.9168172645      -38.0688419415       11.4530625483  MEMB      95              0.0000000000
     10949        95  OSM       H5F           -34.8372299757      -37.6284422372       11.0135067130  MEMB      95              0.0000000000
     10950        95  OSM       H5G           -34.3095877162      -38.9500173909       12.0040455610  MEMB      95              0.0000000000
     10951        95  OSM       C6F           -33.0609790465      -38.5126310892       10.2179623099  MEMB      95              0.0000000000
     10952        95  OSM       H6F           -33.6270079512      -39.2338379979        9.5904329356  MEMB      95              0.0000000000
     10953        95  OSM       H6G           -32.2187175928      -39.1019532681       10.6394070498  MEMB      95              0.0000000000
     10954        95  OSM       C7F           -32.3729259343      -37.4388632817        9.3780841732  MEMB      95              0.0000000000
     10955        95  OSM       H7F           -31.9735289677      -36.5893892307        9.9723876843  MEMB      95              0.0000000000
     10956        95  OSM       H7G           -33.1141652542      -36.9063864963        8.7445598399  MEMB      95              0.0000000000
     10957        95  OSM       C8F           -31.2217246281      -37.9102384415        8.4147909858  MEMB      95              0.0000000000
     10958        95  OSM       H8F           -30.4928726706      -38.5032966238        9.0075614858  MEMB      95              0.0000000000
     10959        95  OSM       H8G           -30.7017598931      -36.9717611016        8.1263157146  MEMB      95              0.0000000000
     10960        95  OSM       C9F           -31.8082641695      -38.4627303119        7.2113267577  MEMB      95              0.0000000000
     10961        95  OSM       H9F           -32.3665059210      -39.3849446228        7.4301573187  MEMB      95              0.0000000000
     10962        95  OSM       C10F          -31.7264474627      -38.0262517228        5.8797149176  MEMB      95              0.0000000000
     10963        95  OSM       H10F          -32.3434260847      -38.5079209963        5.1068426634  MEMB      95              0.0000000000
     10964        95  OSM       C11F          -31.0008560148      -36.8249941813        5.3850907535  MEMB      95              0.0000000000
     10965        95  OSM       H11F          -31.0613433420      -35.9694325224        6.0912616936  MEMB      95              0.0000000000
     10966        95  OSM       H11G          -31.4739759554      -36.6478641097        4.3955951600  MEMB      95              0.0000000000
     10967        95  OSM       C12F          -29.5326142291      -37.0881318926        5.1157860127  MEMB      95              0.0000000000
     10968        95  OSM       H12F          -29.3512897769      -37.8857573513        4.3639651703  MEMB      95              0.0000000000
     10969        95  OSM       H12G          -29.0371602534      -37.2791667829        6.0916710880  MEMB      95              0.0000000000
     10970        95  OSM       C13F          -28.7151510698      -35.7923616895        4.6173343916  MEMB      95              0.0000000000
     10971        95  OSM       H13F          -27.6600299787      -36.0588079253        4.3936244352  MEMB      95              0.0000000000
     10972        95  OSM       H13G          -28.7186004608      -34.9641651730        5.3578748221  MEMB      95              0.0000000000
     10973        95  OSM       C14F          -29.2091623409      -35.1209059772        3.4386268772  MEMB      95              0.0000000000
     10974        95  OSM       H14F          -28.4529893589      -34.3453757860        3.1914914275  MEMB      95              0.0000000000
     10975        95  OSM       H14G          -30.1743685679      -34.6074488049        3.6362623756  MEMB      95              0.0000000000
     10976        95  OSM       C15F          -29.3465931724      -36.1758218656        2.3304042602  MEMB      95              0.0000000000
     10977        95  OSM       H15F          -30.2636181823      -36.7494753245        2.5839932560  MEMB      95              0.0000000000
     10978        95  OSM       H15G          -28.5933811566      -36.9919869956        2.3009544026  MEMB      95              0.0000000000
     10979        95  OSM       C16F          -29.4504539657      -35.6179722861        0.8385301519  MEMB      95              0.0000000000
     10980        95  OSM       H16F          -28.4236199502      -35.2456445374        0.6352941639  MEMB      95              0.0000000000
     10981        95  OSM       H16G          -30.0828326559      -34.7093864742        0.9328168307  MEMB      95              0.0000000000
     10982        95  OSM       C17F          -29.9342352580      -36.6956408925       -0.0862682007  MEMB      95              0.0000000000
     10983        95  OSM       H17F          -30.9752538865      -37.0372517430        0.0978580398  MEMB      95              0.0000000000
     10984        95  OSM       H17G          -29.3834873868      -37.6364053939        0.1281152927  MEMB      95              0.0000000000
     10985        95  OSM       C18F          -29.6969718602      -36.3465815663       -1.6074838458  MEMB      95              0.0000000000
     10986        95  OSM       H18F          -28.6128864156      -36.1691002881       -1.7735571077  MEMB      95              0.0000000000
     10987        95  OSM       H18G          -30.2830666307      -35.4643615136       -1.9428967635  MEMB      95              0.0000000000
     10988        95  OSM       H18H          -30.0433261438      -37.2203533537       -2.1998370948  MEMB      95              0.0000000000
     10989        96  SLPC      N              35.2297360260       36.3522853232       18.0820052346  MEMB      96              0.0000000000
     10990        96  SLPC      C13            34.7793342939       35.2234852922       19.0502040725  MEMB      96              0.0000000000
     10991        96  SLPC      H13A           35.2242319310       34.2651744594       18.8263594302  MEMB      96              0.0000000000
     10992        96  SLPC      H13B           35.1116210181       35.5489498648       20.0249135395  MEMB      96              0.0000000000
     10993        96  SLPC      H13C           33.7182606365       35.1695043834       18.8562743336  MEMB      96              0.0000000000
     10994        96  SLPC      C14            36.7084399505       36.4701596904       18.1026556954  MEMB      96              0.0000000000
     10995        96  SLPC      H14A           37.0006590572       36.4290283717       19.1415571650  MEMB      96              0.0000000000
     10996        96  SLPC      H14B           37.2514783358       35.7657298946       17.4900482663  MEMB      96              0.0000000000
     10997        96  SLPC      H14C           36.9616858201       37.4022641548       17.6194912655  MEMB      96              0.0000000000
     10998        96  SLPC      C15            34.6814664980       37.6408531868       18.6830548999  MEMB      96              0.0000000000
     10999        96  SLPC      H15A           35.0368512030       37.8201913443       19.6870167662  MEMB      96              0.0000000000
     11000        96  SLPC      H15B           34.9903404856       38.4607154605       18.0515309170  MEMB      96              0.0000000000
     11001        96  SLPC      H15C           33.6022624217       37.6532101600       18.7226259904  MEMB      96              0.0000000000
     11002        96  SLPC      C12            34.7436287522       36.2353864994       16.6705664999  MEMB      96              0.0000000000
     11003        96  SLPC      H12A           35.1121285684       37.0156851024       16.0211498552  MEMB      96              0.0000000000
     11004        96  SLPC      H12B           33.6664017687       36.3127240749       16.6695803894  MEMB      96              0.0000000000
     11005        96  SLPC      C11            34.9404236580       34.9986751392       15.7510857530  MEMB      96              0.0000000000
     11006        96  SLPC      H11A           36.0215468650       34.7998170467       15.5899986489  MEMB      96              0.0000000000
     11007        96  SLPC      H11B           34.4412676657       35.3510662151       14.8231929593  MEMB      96              0.0000000000
     11008        96  SLPC      P              32.7020847838       33.7029975448       16.2109945753  MEMB      96              0.0000000000
     11009        96  SLPC      O13            32.0790521750       32.7338497850       17.1899781007  MEMB      96              0.0000000000
     11010        96  SLPC      O14            32.0356825452       35.0182152457       16.0478780534  MEMB      96              0.0000000000
     11011        96  SLPC      O12            34.2802336528       33.9487896856       16.4816643442  MEMB      96              0.0000000000
     11012        96  SLPC      O11            32.6422967713       33.0814772795       14.7299128250  MEMB      96              0.0000000000
     11013        96  SLPC      C1             31.5171094547       32.3506518352       14.2656544241  MEMB      96              0.0000000000
     11014        96  SLPC      HA             31.8643230177       31.3325905596       13.9875987825  MEMB      96              0.0000000000
     11015        96  SLPC      HB             30.7023518910       32.2642759083       15.0160079656  MEMB      96              0.0000000000
     11016        96  SLPC      C2             30.8195778507       32.9507900808       12.9835268468  MEMB      96              0.0000000000
     11017        96  SLPC      HS             30.1694505436       32.1461577848       12.5782832839  MEMB      96              0.0000000000
     11018        96  SLPC      O21            31.7811531327       33.3170217036       11.9714437149  MEMB      96              0.0000000000
     11019        96  SLPC      C21            32.5481809083       32.3301750162       11.4220534545  MEMB      96              0.0000000000
     11020        96  SLPC      O22            32.3013379939       31.1223480189       11.4921100292  MEMB      96              0.0000000000
     11021        96  SLPC      C22            33.6851180180       32.9937249301       10.7204295151  MEMB      96              0.0000000000
     11022        96  SLPC      H2R            33.2654991083       33.5957773803        9.8862987442  MEMB      96              0.0000000000
     11023        96  SLPC      H2S            34.2210376799       33.7167247466       11.3718760319  MEMB      96              0.0000000000
     11024        96  SLPC      C3             29.9388024744       34.2104591261       13.3050733619  MEMB      96              0.0000000000
     11025        96  SLPC      HX             30.6100448264       34.9721407331       13.7562893332  MEMB      96              0.0000000000
     11026        96  SLPC      HY             29.1860158149       33.8553870455       14.0409790017  MEMB      96              0.0000000000
     11027        96  SLPC      O31            29.4184267745       34.7903684967       12.1135470830  MEMB      96              0.0000000000
     11028        96  SLPC      C31            29.3867333639       36.1637201406       11.9986954946  MEMB      96              0.0000000000
     11029        96  SLPC      O32            29.5654050995       36.9419567511       12.9278580817  MEMB      96              0.0000000000
     11030        96  SLPC      C32            28.8688070867       36.6164406825       10.6286332321  MEMB      96              0.0000000000
     11031        96  SLPC      H2X            28.3861074269       37.5797944326       10.8993202698  MEMB      96              0.0000000000
     11032        96  SLPC      H2Y            28.1618522097       35.8290360934       10.2902100887  MEMB      96              0.0000000000
     11033        96  SLPC      C23            34.7617866113       31.9914292804       10.1861079644  MEMB      96              0.0000000000
     11034        96  SLPC      H3R            34.2804171472       31.3896785972        9.3857951034  MEMB      96              0.0000000000
     11035        96  SLPC      H3S            35.0331258790       31.2995858751       11.0119704513  MEMB      96              0.0000000000
     11036        96  SLPC      C24            36.0357290344       32.6516160767        9.5771897159  MEMB      96              0.0000000000
     11037        96  SLPC      H4R            36.7332669488       31.8399359594        9.2789664405  MEMB      96              0.0000000000
     11038        96  SLPC      H4S            36.5088561136       33.2026720364       10.4179090293  MEMB      96              0.0000000000
     11039        96  SLPC      C25            35.7769166353       33.6778951873        8.4488027593  MEMB      96              0.0000000000
     11040        96  SLPC      H5R            36.6828015748       34.2993049992        8.2828409751  MEMB      96              0.0000000000
     11041        96  SLPC      H5S            34.9821920032       34.4021975225        8.7283021442  MEMB      96              0.0000000000
     11042        96  SLPC      C26            35.4032211296       33.2179490926        7.0153619168  MEMB      96              0.0000000000
     11043        96  SLPC      H6R            36.2515144217       32.5806384747        6.6858857593  MEMB      96              0.0000000000
     11044        96  SLPC      H6S            35.3937428003       34.1059139130        6.3477165522  MEMB      96              0.0000000000
     11045        96  SLPC      C27            34.0971190566       32.5077581671        6.7250706884  MEMB      96              0.0000000000
     11046        96  SLPC      H7R            33.2623153830       33.1227414051        7.1240941038  MEMB      96              0.0000000000
     11047        96  SLPC      H7S            33.9926270101       31.5774832208        7.3233940474  MEMB      96              0.0000000000
     11048        96  SLPC      C28            33.8731295093       32.2828979682        5.2742955052  MEMB      96              0.0000000000
     11049        96  SLPC      H8R            33.8846788918       33.2343383546        4.7007544661  MEMB      96              0.0000000000
     11050        96  SLPC      H8S            32.8081721415       31.9672104790        5.2972772692  MEMB      96              0.0000000000
     11051        96  SLPC      C29            34.8186010959       31.2476685026        4.6529236763  MEMB      96              0.0000000000
     11052        96  SLPC      H9R            34.7025620873       30.2156368968        5.0154785583  MEMB      96              0.0000000000
     11053        96  SLPC      C210           35.6752265125       31.3271051546        3.5892519997  MEMB      96              0.0000000000
     11054        96  SLPC      H10R           36.2938329186       30.4740162589        3.2737118332  MEMB      96              0.0000000000
     11055        96  SLPC      C211           35.9427693100       32.5371760139        2.7270702872  MEMB      96              0.0000000000
     11056        96  SLPC      H11R           35.0983244780       33.2582360305        2.7632106102  MEMB      96              0.0000000000
     11057        96  SLPC      H11S           35.9773360778       32.3049610379        1.6411594334  MEMB      96              0.0000000000
     11058        96  SLPC      C212           37.2110466111       33.2530193140        3.1554020009  MEMB      96              0.0000000000
     11059        96  SLPC      H12R           38.1146425069       32.6640708370        3.3713985110  MEMB      96              0.0000000000
     11060        96  SLPC      C213           37.3067698472       34.5836744629        3.4763398432  MEMB      96              0.0000000000
     11061        96  SLPC      H13R           38.2559592568       35.1173917344        3.6318566541  MEMB      96              0.0000000000
     11062        96  SLPC      C214           36.0752338066       35.5092536557        3.4517298016  MEMB      96              0.0000000000
     11063        96  SLPC      H14R           36.2789403111       36.0271959990        4.4132707356  MEMB      96              0.0000000000
     11064        96  SLPC      H14S           35.1389697935       34.9768871728        3.7243394495  MEMB      96              0.0000000000
     11065        96  SLPC      C215           35.8730587709       36.4947227030        2.2654225160  MEMB      96              0.0000000000
     11066        96  SLPC      H15R           35.0444269441       37.2091405165        2.4585478487  MEMB      96              0.0000000000
     11067        96  SLPC      H15S           35.6753324506       35.9009813790        1.3474371972  MEMB      96              0.0000000000
     11068        96  SLPC      C216           37.1214858785       37.4174184970        2.0880966879  MEMB      96              0.0000000000
     11069        96  SLPC      H16R           38.0726487586       36.8780561601        1.8913770529  MEMB      96              0.0000000000
     11070        96  SLPC      H16S           37.2518305521       37.8394382386        3.1075229723  MEMB      96              0.0000000000
     11071        96  SLPC      C217           37.1330241471       38.3974890213        0.9179225926  MEMB      96              0.0000000000
     11072        96  SLPC      H17R           38.0695383156       38.9665411841        1.1007951678  MEMB      96              0.0000000000
     11073        96  SLPC      H17S           36.3492844722       39.1562504534        1.1285257915  MEMB      96              0.0000000000
     11074        96  SLPC      C218           37.2400319489       37.7897293674       -0.5111008338  MEMB      96              0.0000000000
     11075        96  SLPC      H18R           38.0237454378       37.0054401576       -0.4403622998  MEMB      96              0.0000000000
     11076        96  SLPC      H18S           37.5727891859       38.5244792011       -1.2751253516  MEMB      96              0.0000000000
     11077        96  SLPC      H18T           36.2887579185       37.2929472429       -0.7985147414  MEMB      96              0.0000000000
     11078        96  SLPC      C33            30.1199440414       36.9248272607        9.7308266022  MEMB      96              0.0000000000
     11079        96  SLPC      H3X            30.8597178906       37.5992437770       10.2127165544  MEMB      96              0.0000000000
     11080        96  SLPC      H3Y            29.7891594221       37.4192845964        8.7925225779  MEMB      96              0.0000000000
     11081        96  SLPC      C34            30.9436068761       35.7520651264        9.3048057827  MEMB      96              0.0000000000
     11082        96  SLPC      H4X            30.3061878779       34.9549738653        8.8658710982  MEMB      96              0.0000000000
     11083        96  SLPC      H4Y            31.3194498465       35.3823803944       10.2827608019  MEMB      96              0.0000000000
     11084        96  SLPC      C35            32.0523981900       36.1132095691        8.3182166225  MEMB      96              0.0000000000
     11085        96  SLPC      H5X            32.8748054491       35.3684531210        8.3757053849  MEMB      96              0.0000000000
     11086        96  SLPC      H5Y            32.5245401508       37.1010384912        8.5068884988  MEMB      96              0.0000000000
     11087        96  SLPC      C36            31.6381360912       36.2574553158        6.8381443544  MEMB      96              0.0000000000
     11088        96  SLPC      H6X            32.4125162432       36.4548597683        6.0663359380  MEMB      96              0.0000000000
     11089        96  SLPC      H6Y            30.9463326477       37.1263712705        6.8648675211  MEMB      96              0.0000000000
     11090        96  SLPC      C37            30.8598599349       35.0735856797        6.2216428421  MEMB      96              0.0000000000
     11091        96  SLPC      H7X            29.8088294275       35.0964329238        6.5809948992  MEMB      96              0.0000000000
     11092        96  SLPC      H7Y            31.3802180147       34.1738943264        6.6142035538  MEMB      96              0.0000000000
     11093        96  SLPC      C38            30.9398430609       35.1292977477        4.6770830640  MEMB      96              0.0000000000
     11094        96  SLPC      H8X            32.0141308259       35.1714681088        4.3969967435  MEMB      96              0.0000000000
     11095        96  SLPC      H8Y            30.4147950659       36.0596455822        4.3719625221  MEMB      96              0.0000000000
     11096        96  SLPC      C39            30.1138542852       34.0022991716        4.0565157234  MEMB      96              0.0000000000
     11097        96  SLPC      H9X            29.0535657255       34.1852534807        4.3333493346  MEMB      96              0.0000000000
     11098        96  SLPC      H9Y            30.3805441119       32.9676291750        4.3609098611  MEMB      96              0.0000000000
     11099        96  SLPC      C310           30.2502106385       33.9300078002        2.5696513230  MEMB      96              0.0000000000
     11100        96  SLPC      H10X           29.7414746643       33.0021407454        2.2311681208  MEMB      96              0.0000000000
     11101        96  SLPC      H10Y           31.3119631716       33.9804447890        2.2464514370  MEMB      96              0.0000000000
     11102        96  SLPC      C311           29.6237260997       35.1563713372        1.7678997991  MEMB      96              0.0000000000
     11103        96  SLPC      H11X           30.1941659034       36.0673245073        2.0491179750  MEMB      96              0.0000000000
     11104        96  SLPC      H11Y           28.5691664443       35.3220320216        2.0757656476  MEMB      96              0.0000000000
     11105        96  SLPC      C312           29.7144215003       35.0115215320        0.2434956179  MEMB      96              0.0000000000
     11106        96  SLPC      H12X           29.4650993621       35.9541739033       -0.2890126128  MEMB      96              0.0000000000
     11107        96  SLPC      H12Y           28.9070533137       34.3074512075       -0.0510595126  MEMB      96              0.0000000000
     11108        96  SLPC      C313           31.0592968556       34.5020028121       -0.2830381769  MEMB      96              0.0000000000
     11109        96  SLPC      H13X           31.0179411462       33.3919577301       -0.3032987311  MEMB      96              0.0000000000
     11110        96  SLPC      H13Y           31.8755501283       34.8460211401        0.3875599849  MEMB      96              0.0000000000
     11111        96  SLPC      C314           31.4315141697       34.9765839053       -1.7018519341  MEMB      96              0.0000000000
     11112        96  SLPC      H14X           31.5285948221       36.0829319525       -1.6720125063  MEMB      96              0.0000000000
     11113        96  SLPC      H14Y           30.5322347222       34.6342634440       -2.2572197433  MEMB      96              0.0000000000
     11114        96  SLPC      C315           32.7347410649       34.2614833612       -2.1759646466  MEMB      96              0.0000000000
     11115        96  SLPC      H15X           33.6361166272       34.5426146418       -1.5904665296  MEMB      96              0.0000000000
     11116        96  SLPC      H15Y           32.9329740101       34.6422051049       -3.2006963708  MEMB      96              0.0000000000
     11117        96  SLPC      C316           32.6532769561       32.7568301506       -2.3976933055  MEMB      96              0.0000000000
     11118        96  SLPC      H16X           32.9926513226       32.4233150630       -3.4016418927  MEMB      96              0.0000000000
     11119        96  SLPC      H16Y           31.6663917517       32.3185166914       -2.1364275528  MEMB      96              0.0000000000
     11120        96  SLPC      C317           33.6312042351       32.1201033434       -1.4298969840  MEMB      96              0.0000000000
     11121        96  SLPC      H17X           34.5635444500       32.6961046426       -1.6123387462  MEMB      96              0.0000000000
     11122        96  SLPC      H17Y           33.6977192316       31.0236134984       -1.5960510778  MEMB      96              0.0000000000
     11123        96  SLPC      C318           33.2618434199       32.1693771896        0.0528092433  MEMB      96              0.0000000000
     11124        96  SLPC      H18X           33.3564691463       33.2020809992        0.4514207915  MEMB      96              0.0000000000
     11125        96  SLPC      H18Y           34.0128844614       31.6600657599        0.6937945922  MEMB      96              0.0000000000
     11126        96  SLPC      H18Z           32.2745966253       31.6681257540        0.1445235415  MEMB      96              0.0000000000
     11127        97  SAPS      N              -2.8096907014        0.4111752079      -22.3083219845  MEMB      97              0.0000000000
     11128        97  SAPS      HN1            -2.7060130634       -0.6194552470      -22.2153061350  MEMB      97              0.0000000000
     11129        97  SAPS      HN2            -3.2106002845        0.6101451678      -23.2470885469  MEMB      97              0.0000000000
     11130        97  SAPS      HN3            -1.8399503241        0.7869408788      -22.3063937329  MEMB      97              0.0000000000
     11131        97  SAPS      C12            -3.5048948582        0.9562292408      -21.1115058402  MEMB      97              0.0000000000
     11132        97  SAPS      H12A           -3.7216088307        1.9942847052      -21.3161419772  MEMB      97              0.0000000000
     11133        97  SAPS      C13            -4.7997850564        0.3038639297      -20.7710982192  MEMB      97              0.0000000000
     11134        97  SAPS      O13A           -5.4465358985       -0.4883890607      -21.5807230975  MEMB      97              0.0000000000
     11135        97  SAPS      O13B           -5.3417589609        0.8976788652      -19.8062634519  MEMB      97              0.0000000000
     11136        97  SAPS      C11            -2.5592651829        0.7926276537      -19.9163175662  MEMB      97              0.0000000000
     11137        97  SAPS      H11A           -2.1357624412       -0.2191805251      -19.7396518663  MEMB      97              0.0000000000
     11138        97  SAPS      H11B           -3.1911687474        1.0293422623      -19.0337162797  MEMB      97              0.0000000000
     11139        97  SAPS      P              -0.4448046773        1.8471111899      -18.8697004259  MEMB      97              0.0000000000
     11140        97  SAPS      O13             0.0109227202        0.4528558162      -18.5008670801  MEMB      97              0.0000000000
     11141        97  SAPS      O14             0.4383549910        2.9105134740      -19.3044728073  MEMB      97              0.0000000000
     11142        97  SAPS      O12            -1.4962521353        1.7083862585      -20.0886830962  MEMB      97              0.0000000000
     11143        97  SAPS      O11            -1.3866758360        2.4363025799      -17.7420463838  MEMB      97              0.0000000000
     11144        97  SAPS      C1             -2.1292649738        3.6733393189      -17.9945315127  MEMB      97              0.0000000000
     11145        97  SAPS      HA             -1.3162522769        4.4290397753      -17.9471162650  MEMB      97              0.0000000000
     11146        97  SAPS      HB             -2.6683596569        3.7637069007      -18.9617603350  MEMB      97              0.0000000000
     11147        97  SAPS      C2             -3.2295171876        3.9779679882      -16.8957975815  MEMB      97              0.0000000000
     11148        97  SAPS      HS             -3.4092494203        5.0741084716      -16.9180090801  MEMB      97              0.0000000000
     11149        97  SAPS      O21            -2.7675474143        3.5657827910      -15.5999522450  MEMB      97              0.0000000000
     11150        97  SAPS      C21            -2.0335681374        4.4148825105      -14.9222127394  MEMB      97              0.0000000000
     11151        97  SAPS      O22            -1.8532384691        5.5977296482      -15.2325355045  MEMB      97              0.0000000000
     11152        97  SAPS      C22            -1.4244190173        3.7055170417      -13.6714898226  MEMB      97              0.0000000000
     11153        97  SAPS      H2R            -2.1643465203        2.9722415783      -13.2853093728  MEMB      97              0.0000000000
     11154        97  SAPS      H2S            -0.4936656238        3.1236644887      -13.8431484592  MEMB      97              0.0000000000
     11155        97  SAPS      C3             -4.5112259344        3.2081275643      -17.1802171604  MEMB      97              0.0000000000
     11156        97  SAPS      HX             -4.9245205974        3.5118796360      -18.1657337373  MEMB      97              0.0000000000
     11157        97  SAPS      HY             -5.2110339718        3.6278931601      -16.4263030330  MEMB      97              0.0000000000
     11158        97  SAPS      O31            -4.2586455695        1.8088773656      -17.0698404296  MEMB      97              0.0000000000
     11159        97  SAPS      C31            -4.9075787626        1.1210940502      -16.0751938315  MEMB      97              0.0000000000
     11160        97  SAPS      O32            -5.6290369199        1.6032130922      -15.2559112799  MEMB      97              0.0000000000
     11161        97  SAPS      C32            -4.5680118795       -0.4024085671      -16.2912206694  MEMB      97              0.0000000000
     11162        97  SAPS      H2X            -5.0046206618       -0.7347831749      -17.2572544304  MEMB      97              0.0000000000
     11163        97  SAPS      H2Y            -5.0087391425       -0.9030934780      -15.4027415745  MEMB      97              0.0000000000
     11164        97  SAPS      C23            -1.0642319425        4.6866462430      -12.4882943794  MEMB      97              0.0000000000
     11165        97  SAPS      H3R            -1.2937523696        4.1965502441      -11.5180125544  MEMB      97              0.0000000000
     11166        97  SAPS      H3S            -1.6536407667        5.6267105201      -12.5448403332  MEMB      97              0.0000000000
     11167        97  SAPS      C24             0.4353892441        5.1184909021      -12.4800000073  MEMB      97              0.0000000000
     11168        97  SAPS      H4R             0.5086778285        6.0043740282      -11.8135456957  MEMB      97              0.0000000000
     11169        97  SAPS      H4S             0.8036836211        5.5754725112      -13.4233174653  MEMB      97              0.0000000000
     11170        97  SAPS      C25             1.3496732320        3.9841271778      -12.1459646478  MEMB      97              0.0000000000
     11171        97  SAPS      H5R             1.6390341851        3.4007106994      -13.0324721548  MEMB      97              0.0000000000
     11172        97  SAPS      C26             1.7689422709        3.7090638726      -10.9102637774  MEMB      97              0.0000000000
     11173        97  SAPS      H6R             2.4456781862        2.8595197524      -10.7361850325  MEMB      97              0.0000000000
     11174        97  SAPS      C27             1.4070822550        4.6506491121       -9.8109765816  MEMB      97              0.0000000000
     11175        97  SAPS      H7R             0.3629350436        5.0281955051       -9.8501719963  MEMB      97              0.0000000000
     11176        97  SAPS      H7S             1.8860618241        5.6424889330       -9.9564189617  MEMB      97              0.0000000000
     11177        97  SAPS      C28             1.8961105720        4.1736265705       -8.4965306106  MEMB      97              0.0000000000
     11178        97  SAPS      H8R             2.4007706319        3.2117970941       -8.3227428264  MEMB      97              0.0000000000
     11179        97  SAPS      C29             1.8346588593        4.9965293362       -7.3398034622  MEMB      97              0.0000000000
     11180        97  SAPS      H9R             2.1068164103        4.5375975869       -6.3778717534  MEMB      97              0.0000000000
     11181        97  SAPS      C210            1.2664876597        6.4222091747       -7.2477389627  MEMB      97              0.0000000000
     11182        97  SAPS      H10R            0.6430552732        6.6337209257       -8.1426784070  MEMB      97              0.0000000000
     11183        97  SAPS      H10S            2.1378266432        7.0934699276       -7.4042608005  MEMB      97              0.0000000000
     11184        97  SAPS      C211            0.5542328501        6.8286023007       -5.9926784833  MEMB      97              0.0000000000
     11185        97  SAPS      H11R           -0.5367368269        6.7304307005       -6.0934127248  MEMB      97              0.0000000000
     11186        97  SAPS      C212            0.9738834664        7.1269418560       -4.6782603050  MEMB      97              0.0000000000
     11187        97  SAPS      H12R            0.1898631085        7.1237769029       -3.9067026647  MEMB      97              0.0000000000
     11188        97  SAPS      C213            2.3978597918        7.1672703103       -4.1392866794  MEMB      97              0.0000000000
     11189        97  SAPS      H13R            2.4500912363        8.0632870073       -3.4845009113  MEMB      97              0.0000000000
     11190        97  SAPS      H13S            3.1260567172        7.4909736775       -4.9134102579  MEMB      97              0.0000000000
     11191        97  SAPS      C214            2.7797149382        5.8115761441       -3.6336664047  MEMB      97              0.0000000000
     11192        97  SAPS      H14R            3.5909832002        5.3196601843       -4.1903190996  MEMB      97              0.0000000000
     11193        97  SAPS      C215            2.4065726362        5.2013874414       -2.4944124478  MEMB      97              0.0000000000
     11194        97  SAPS      H15R            2.8573350512        4.2088135263       -2.3474079843  MEMB      97              0.0000000000
     11195        97  SAPS      C216            1.4241880049        5.7597992145       -1.4624346386  MEMB      97              0.0000000000
     11196        97  SAPS      H16R            1.0697484550        6.7221741312       -1.8896691143  MEMB      97              0.0000000000
     11197        97  SAPS      H16S            1.9390914026        5.9531140931       -0.4971252743  MEMB      97              0.0000000000
     11198        97  SAPS      C217            0.1952710905        4.8863779268       -1.2883052223  MEMB      97              0.0000000000
     11199        97  SAPS      H17R            0.5595453437        3.8883284652       -0.9634640040  MEMB      97              0.0000000000
     11200        97  SAPS      H17S           -0.3005548057        4.8337926069       -2.2811365762  MEMB      97              0.0000000000
     11201        97  SAPS      C218           -0.8435922770        5.3606210295       -0.2162257828  MEMB      97              0.0000000000
     11202        97  SAPS      H18R           -0.2462482951        5.3468306199        0.7204219844  MEMB      97              0.0000000000
     11203        97  SAPS      H18S           -1.7094749268        4.6684555398       -0.1422316556  MEMB      97              0.0000000000
     11204        97  SAPS      C219           -1.4765082388        6.7531580349       -0.4035195207  MEMB      97              0.0000000000
     11205        97  SAPS      H19R           -0.7716662671        7.5910602417       -0.2152702600  MEMB      97              0.0000000000
     11206        97  SAPS      H19S           -2.3670618839        6.7361121706        0.2605173201  MEMB      97              0.0000000000
     11207        97  SAPS      C220           -2.0382347760        6.9780331472       -1.8393711969  MEMB      97              0.0000000000
     11208        97  SAPS      H20R           -2.5574595347        7.9479294076       -1.9943829463  MEMB      97              0.0000000000
     11209        97  SAPS      H20S           -2.8951998059        6.3313159172       -2.1251835016  MEMB      97              0.0000000000
     11210        97  SAPS      H20T           -1.2721780470        6.8131013520       -2.6269474317  MEMB      97              0.0000000000
     11211        97  SAPS      C33            -2.9610762907       -0.4992666029      -16.1587877000  MEMB      97              0.0000000000
     11212        97  SAPS      H3X            -2.3281276310        0.1777646879      -16.7714261350  MEMB      97              0.0000000000
     11213        97  SAPS      H3Y            -2.7994257225       -1.4967489700      -16.6205439762  MEMB      97              0.0000000000
     11214        97  SAPS      C34            -2.3807312152       -0.5574374639      -14.7439136080  MEMB      97              0.0000000000
     11215        97  SAPS      H4X            -2.9653483974       -1.1798782759      -14.0332020282  MEMB      97              0.0000000000
     11216        97  SAPS      H4Y            -2.2883635346        0.4347300198      -14.2525960133  MEMB      97              0.0000000000
     11217        97  SAPS      C35            -0.9952010176       -1.2053917598      -14.6705045909  MEMB      97              0.0000000000
     11218        97  SAPS      H5X            -0.3880491626       -0.5394078170      -15.3202374409  MEMB      97              0.0000000000
     11219        97  SAPS      H5Y            -0.9687858550       -2.2435164438      -15.0653724138  MEMB      97              0.0000000000
     11220        97  SAPS      C36            -0.3538555316       -1.2792689586      -13.2690128926  MEMB      97              0.0000000000
     11221        97  SAPS      H6X             0.2891990459       -2.1845797853      -13.2341631720  MEMB      97              0.0000000000
     11222        97  SAPS      H6Y            -1.1688115309       -1.6713006579      -12.6236612031  MEMB      97              0.0000000000
     11223        97  SAPS      C37             0.3492589022        0.0015116992      -12.7209777380  MEMB      97              0.0000000000
     11224        97  SAPS      H7X            -0.4553365949        0.7676352329      -12.7196041783  MEMB      97              0.0000000000
     11225        97  SAPS      H7Y             1.1638240094        0.1814272327      -13.4547590534  MEMB      97              0.0000000000
     11226        97  SAPS      C38             0.7209906190       -0.1147525239      -11.2518841844  MEMB      97              0.0000000000
     11227        97  SAPS      H8X             1.3803208583        0.7413298112      -10.9935671399  MEMB      97              0.0000000000
     11228        97  SAPS      H8Y             1.3722355803       -1.0131217844      -11.1959073129  MEMB      97              0.0000000000
     11229        97  SAPS      C39            -0.3811043252       -0.1921596390      -10.1370821730  MEMB      97              0.0000000000
     11230        97  SAPS      H9X             0.1810704788       -0.2614176725       -9.1813187523  MEMB      97              0.0000000000
     11231        97  SAPS      H9Y            -1.1504711303       -0.9936235122      -10.1442439510  MEMB      97              0.0000000000
     11232        97  SAPS      C310           -1.0394628706        1.2716258393      -10.0328594789  MEMB      97              0.0000000000
     11233        97  SAPS      H10X           -1.8266027845        1.4312488178      -10.8004873882  MEMB      97              0.0000000000
     11234        97  SAPS      H10Y           -0.2108906727        1.9562979334      -10.3139524432  MEMB      97              0.0000000000
     11235        97  SAPS      C311           -1.5034689197        1.5842360903       -8.6260982303  MEMB      97              0.0000000000
     11236        97  SAPS      H11X           -1.7774817706        2.6462221655       -8.4488311492  MEMB      97              0.0000000000
     11237        97  SAPS      H11Y           -0.7169389493        1.3517822943       -7.8766605865  MEMB      97              0.0000000000
     11238        97  SAPS      C312           -2.7678561625        0.7950583724       -8.0941717546  MEMB      97              0.0000000000
     11239        97  SAPS      H12X           -2.7590374339       -0.2554900461       -8.4555451953  MEMB      97              0.0000000000
     11240        97  SAPS      H12Y           -3.6660061231        1.3116296713       -8.4951727359  MEMB      97              0.0000000000
     11241        97  SAPS      C313           -2.8576219697        0.7454960264       -6.5713780967  MEMB      97              0.0000000000
     11242        97  SAPS      H13X           -1.8618363813        0.4291540788       -6.1936742665  MEMB      97              0.0000000000
     11243        97  SAPS      H13Y           -3.5264331400       -0.0472820394       -6.1732377596  MEMB      97              0.0000000000
     11244        97  SAPS      C314           -3.4006502706        2.0586837530       -5.9230214272  MEMB      97              0.0000000000
     11245        97  SAPS      H14X           -4.4325818462        2.1990294446       -6.3099850872  MEMB      97              0.0000000000
     11246        97  SAPS      H14Y           -2.7751820262        2.9554144576       -6.1204662461  MEMB      97              0.0000000000
     11247        97  SAPS      C315           -3.6109450269        1.9390308280       -4.4158291543  MEMB      97              0.0000000000
     11248        97  SAPS      H15X           -3.9117576396        0.8969316657       -4.1752835244  MEMB      97              0.0000000000
     11249        97  SAPS      H15Y           -4.3273592147        2.6663611757       -3.9775803754  MEMB      97              0.0000000000
     11250        97  SAPS      C316           -2.2686034502        2.2632685398       -3.6856028277  MEMB      97              0.0000000000
     11251        97  SAPS      H16X           -1.9020221452        3.2714215254       -3.9746818741  MEMB      97              0.0000000000
     11252        97  SAPS      H16Y           -1.5419055694        1.5051729456       -4.0482629463  MEMB      97              0.0000000000
     11253        97  SAPS      C317           -2.4768609147        2.2377858440       -2.1777684384  MEMB      97              0.0000000000
     11254        97  SAPS      H17X           -2.8056356563        3.2335871339       -1.8108784044  MEMB      97              0.0000000000
     11255        97  SAPS      H17Y           -1.4448820214        2.0934949889       -1.7923840618  MEMB      97              0.0000000000
     11256        97  SAPS      C318           -3.2156458712        1.0451439610       -1.5915441043  MEMB      97              0.0000000000
     11257        97  SAPS      H18X           -4.3041761544        1.1250865599       -1.7989876338  MEMB      97              0.0000000000
     11258        97  SAPS      H18Y           -3.0799250598        0.8988931720       -0.4986079754  MEMB      97              0.0000000000
     11259        97  SAPS      H18Z           -2.7647694339        0.0898935757       -1.9358248089  MEMB      97              0.0000000000
     11260        98  SOPE      N               3.6417534079       -1.0280166299      -23.3187996184  MEMB      98              0.0000000000
     11261        98  SOPE      HN1             3.0924173174       -0.4969839448      -24.0243731179  MEMB      98              0.0000000000
     11262        98  SOPE      HN2             4.2494323633       -0.3763199988      -22.7824995495  MEMB      98              0.0000000000
     11263        98  SOPE      HN3             4.1270911735       -1.8325959968      -23.7645567222  MEMB      98              0.0000000000
     11264        98  SOPE      C12             2.7400466586       -1.6874147147      -22.2721260758  MEMB      98              0.0000000000
     11265        98  SOPE      H12A            2.2006572317       -2.5630206585      -22.6924760556  MEMB      98              0.0000000000
     11266        98  SOPE      H12B            2.0119901286       -0.8586758276      -22.1400413441  MEMB      98              0.0000000000
     11267        98  SOPE      C11             3.4208812892       -2.0599654132      -20.9746668004  MEMB      98              0.0000000000
     11268        98  SOPE      H11A            2.5822008141       -2.2490673898      -20.2709789890  MEMB      98              0.0000000000
     11269        98  SOPE      H11B            4.1011423627       -1.2745867625      -20.5812888268  MEMB      98              0.0000000000
     11270        98  SOPE      P               5.1972673699       -3.7472746864      -20.3041956412  MEMB      98              0.0000000000
     11271        98  SOPE      O13             6.4641827622       -3.4366403552      -20.9963398018  MEMB      98              0.0000000000
     11272        98  SOPE      O14             5.1135268903       -5.1363851699      -20.0092647511  MEMB      98              0.0000000000
     11273        98  SOPE      O12             3.9462697549       -3.3746265473      -21.1767012919  MEMB      98              0.0000000000
     11274        98  SOPE      O11             5.1033332541       -2.7778272667      -18.9479060225  MEMB      98              0.0000000000
     11275        98  SOPE      C1              5.0907789669       -3.5400013724      -17.7594208969  MEMB      98              0.0000000000
     11276        98  SOPE      HA              6.0061343917       -4.1668195324      -17.6998855046  MEMB      98              0.0000000000
     11277        98  SOPE      HB              4.1379295176       -4.1099701148      -17.7985944719  MEMB      98              0.0000000000
     11278        98  SOPE      C2              5.2114795990       -2.5691365705      -16.4707262749  MEMB      98              0.0000000000
     11279        98  SOPE      HS              5.0836124689       -3.0917567490      -15.4986977366  MEMB      98              0.0000000000
     11280        98  SOPE      O21             4.3838930808       -1.3754741653      -16.5842634038  MEMB      98              0.0000000000
     11281        98  SOPE      C21             3.1173563828       -1.5208030966      -16.3408512393  MEMB      98              0.0000000000
     11282        98  SOPE      O22             2.5922111776       -2.5947555281      -16.1707544769  MEMB      98              0.0000000000
     11283        98  SOPE      C22             2.4746036878       -0.1606499325      -16.2438561610  MEMB      98              0.0000000000
     11284        98  SOPE      H2R             1.6996410354       -0.0652623991      -17.0342075003  MEMB      98              0.0000000000
     11285        98  SOPE      H2S             3.1904321398        0.6635008936      -16.4504619415  MEMB      98              0.0000000000
     11286        98  SOPE      C3              6.7700523510       -2.0915198654      -16.3861985680  MEMB      98              0.0000000000
     11287        98  SOPE      HX              6.8060437414       -1.4139713809      -17.2659448000  MEMB      98              0.0000000000
     11288        98  SOPE      HY              7.5133593619       -2.8968254624      -16.5686777829  MEMB      98              0.0000000000
     11289        98  SOPE      O31             7.1317688590       -1.3237496257      -15.1565934501  MEMB      98              0.0000000000
     11290        98  SOPE      C31             7.3606465129       -2.0050135782      -14.0488402911  MEMB      98              0.0000000000
     11291        98  SOPE      O32             7.1767040135       -3.1782508996      -13.8325638851  MEMB      98              0.0000000000
     11292        98  SOPE      C32             7.7031486082       -1.0604878143      -12.8942865527  MEMB      98              0.0000000000
     11293        98  SOPE      H2X             6.7976592438       -0.7680870866      -12.3207786600  MEMB      98              0.0000000000
     11294        98  SOPE      H2Y             8.0858156347       -0.0603801539      -13.1903807439  MEMB      98              0.0000000000
     11295        98  SOPE      C23             1.6945637108        0.1127796011      -14.8964122631  MEMB      98              0.0000000000
     11296        98  SOPE      H3R             0.9467139349       -0.7021706764      -14.7920211964  MEMB      98              0.0000000000
     11297        98  SOPE      H3S             0.9991075064        0.9789234353      -14.9177826995  MEMB      98              0.0000000000
     11298        98  SOPE      C24             2.5856610070        0.1541637955      -13.6982708808  MEMB      98              0.0000000000
     11299        98  SOPE      H4R             1.8508911423        0.2730615033      -12.8734689678  MEMB      98              0.0000000000
     11300        98  SOPE      H4S             3.0641726774       -0.8288975711      -13.5009438244  MEMB      98              0.0000000000
     11301        98  SOPE      C25             3.5368848191        1.4340862605      -13.6159752879  MEMB      98              0.0000000000
     11302        98  SOPE      H5R             4.2037507033        1.5601569432      -14.4955873393  MEMB      98              0.0000000000
     11303        98  SOPE      H5S             2.8452848730        2.3029575888      -13.6487440702  MEMB      98              0.0000000000
     11304        98  SOPE      C26             4.3078889260        1.5648238805      -12.3200025634  MEMB      98              0.0000000000
     11305        98  SOPE      H6R             5.0718054847        0.7641876685      -12.2213409322  MEMB      98              0.0000000000
     11306        98  SOPE      H6S             4.8350686744        2.5371380666      -12.2150853154  MEMB      98              0.0000000000
     11307        98  SOPE      C27             3.4664602237        1.5077471167      -11.0183540580  MEMB      98              0.0000000000
     11308        98  SOPE      H7R             2.7414743402        2.3480987534      -11.0686129329  MEMB      98              0.0000000000
     11309        98  SOPE      H7S             2.9104954931        0.5465229429      -11.0540290534  MEMB      98              0.0000000000
     11310        98  SOPE      C28             4.2876662239        1.6309230353       -9.6835816086  MEMB      98              0.0000000000
     11311        98  SOPE      H8R             4.9931250641        0.7737102804       -9.6407423676  MEMB      98              0.0000000000
     11312        98  SOPE      H8S             4.9129730115        2.5473528586       -9.7424791587  MEMB      98              0.0000000000
     11313        98  SOPE      C29             3.3808326133        1.6085330230       -8.4208323718  MEMB      98              0.0000000000
     11314        98  SOPE      H91             2.2960122297        1.5928687702       -8.6022699185  MEMB      98              0.0000000000
     11315        98  SOPE      C210            3.6258455330        1.3875095995       -7.1301070235  MEMB      98              0.0000000000
     11316        98  SOPE      H101            2.8427129561        1.4785009126       -6.3630193876  MEMB      98              0.0000000000
     11317        98  SOPE      C211            5.1011286722        1.1424031390       -6.7047437408  MEMB      98              0.0000000000
     11318        98  SOPE      H11R            5.2651011665        1.8099569829       -5.8319291592  MEMB      98              0.0000000000
     11319        98  SOPE      H11S            5.7674783062        1.5196166417       -7.5097340615  MEMB      98              0.0000000000
     11320        98  SOPE      C212            5.4022299919       -0.3132774634       -6.2773605871  MEMB      98              0.0000000000
     11321        98  SOPE      H12R            6.4333050201       -0.3669895422       -5.8670924038  MEMB      98              0.0000000000
     11322        98  SOPE      H12S            5.3355239433       -1.0468635929       -7.1090592055  MEMB      98              0.0000000000
     11323        98  SOPE      C213            4.4824188260       -0.7922354739       -5.1470308263  MEMB      98              0.0000000000
     11324        98  SOPE      H13R            4.6883245674       -1.8839722502       -5.1529506955  MEMB      98              0.0000000000
     11325        98  SOPE      H13S            3.4107897207       -0.7900675569       -5.4401653033  MEMB      98              0.0000000000
     11326        98  SOPE      C214            4.6118495606        0.0259945796       -3.8186283061  MEMB      98              0.0000000000
     11327        98  SOPE      H14R            3.9147511251       -0.5864049758       -3.2076120129  MEMB      98              0.0000000000
     11328        98  SOPE      H14S            4.1753315222        1.0395573221       -3.9469385546  MEMB      98              0.0000000000
     11329        98  SOPE      C215            5.9537720244        0.0549523751       -3.1177176585  MEMB      98              0.0000000000
     11330        98  SOPE      H15R            6.7116058832        0.4178518574       -3.8445690700  MEMB      98              0.0000000000
     11331        98  SOPE      H15S            6.1029740277       -1.0123759889       -2.8477735196  MEMB      98              0.0000000000
     11332        98  SOPE      C216            6.0795589413        0.8194521947       -1.8344797029  MEMB      98              0.0000000000
     11333        98  SOPE      H16R            5.9178422623        1.8799517097       -2.1234601433  MEMB      98              0.0000000000
     11334        98  SOPE      H16S            7.1015520308        0.6947550282       -1.4169856493  MEMB      98              0.0000000000
     11335        98  SOPE      C217            5.1079466178        0.4781657677       -0.7080611737  MEMB      98              0.0000000000
     11336        98  SOPE      H17R            5.2287976498       -0.6201824609       -0.5925295134  MEMB      98              0.0000000000
     11337        98  SOPE      H17S            4.0474444689        0.6125655935       -1.0107046621  MEMB      98              0.0000000000
     11338        98  SOPE      C218            5.4555403079        1.1863294454        0.5826817689  MEMB      98              0.0000000000
     11339        98  SOPE      H18R            4.7912689321        1.0132932707        1.4562503752  MEMB      98              0.0000000000
     11340        98  SOPE      H18S            5.4450636345        2.2729082631        0.3512560462  MEMB      98              0.0000000000
     11341        98  SOPE      H18T            6.5194093136        1.0719375854        0.8817107371  MEMB      98              0.0000000000
     11342        98  SOPE      C33             8.6941335862       -1.8228559992      -11.9189504910  MEMB      98              0.0000000000
     11343        98  SOPE      H3X             9.3269129572       -0.9711354704      -11.5895818194  MEMB      98              0.0000000000
     11344        98  SOPE      H3Y             9.4549356710       -2.4970667699      -12.3672145817  MEMB      98              0.0000000000
     11345        98  SOPE      C34             8.0563242621       -2.4432901234      -10.6636273086  MEMB      98              0.0000000000
     11346        98  SOPE      H4X             7.6097369552       -3.4333222410      -10.8975439559  MEMB      98              0.0000000000
     11347        98  SOPE      H4Y             7.3667273086       -1.7200527940      -10.1781324412  MEMB      98              0.0000000000
     11348        98  SOPE      C35             9.1844615672       -2.5923438580       -9.6049965426  MEMB      98              0.0000000000
     11349        98  SOPE      H5X             9.3595463141       -1.6181264308       -9.1004500635  MEMB      98              0.0000000000
     11350        98  SOPE      H5Y            10.0854319412       -2.9132604111      -10.1703156488  MEMB      98              0.0000000000
     11351        98  SOPE      C36             8.8447858726       -3.6425565383       -8.5497503432  MEMB      98              0.0000000000
     11352        98  SOPE      H6X             9.6457283676       -3.6421089009       -7.7798066549  MEMB      98              0.0000000000
     11353        98  SOPE      H6Y             8.6781371944       -4.6616875821       -8.9595322225  MEMB      98              0.0000000000
     11354        98  SOPE      C37             7.5884519671       -3.2882290864       -7.7748597694  MEMB      98              0.0000000000
     11355        98  SOPE      H7X             6.7287821212       -3.6702924532       -8.3658900108  MEMB      98              0.0000000000
     11356        98  SOPE      H7Y             7.5237113136       -2.2193527125       -7.4788313501  MEMB      98              0.0000000000
     11357        98  SOPE      C38             7.4462792269       -3.9481662842       -6.3594543171  MEMB      98              0.0000000000
     11358        98  SOPE      H8X             7.3098355681       -5.0473192525       -6.4464429563  MEMB      98              0.0000000000
     11359        98  SOPE      H8Y             6.4844825801       -3.5513519439       -5.9698307353  MEMB      98              0.0000000000
     11360        98  SOPE      C39             8.5636287962       -3.7219031148       -5.2678439521  MEMB      98              0.0000000000
     11361        98  SOPE      H9X             9.5350008312       -4.0482391477       -5.6971019746  MEMB      98              0.0000000000
     11362        98  SOPE      H9Y             8.4068270440       -4.3857099672       -4.3908629696  MEMB      98              0.0000000000
     11363        98  SOPE      C310            8.4908822663       -2.2466017360       -4.7428035767  MEMB      98              0.0000000000
     11364        98  SOPE      H10X            7.5916318757       -2.1147206260       -4.1038387660  MEMB      98              0.0000000000
     11365        98  SOPE      H10Y            8.4426109725       -1.5027786306       -5.5666471884  MEMB      98              0.0000000000
     11366        98  SOPE      C311            9.7728161893       -1.7782840073       -3.9341976757  MEMB      98              0.0000000000
     11367        98  SOPE      H11X           10.5255141703       -1.4599554895       -4.6868149827  MEMB      98              0.0000000000
     11368        98  SOPE      H11Y           10.1980175207       -2.6825175014       -3.4485158716  MEMB      98              0.0000000000
     11369        98  SOPE      C312            9.4118599349       -0.7028233598       -3.0164528065  MEMB      98              0.0000000000
     11370        98  SOPE      H12X            8.5793618040       -0.9261551504       -2.3154590852  MEMB      98              0.0000000000
     11371        98  SOPE      H12Y            8.9092683081        0.1187837934       -3.5702423035  MEMB      98              0.0000000000
     11372        98  SOPE      C313           10.7148914796       -0.2849777095       -2.3217755016  MEMB      98              0.0000000000
     11373        98  SOPE      H13X           10.6857134767        0.8058935808       -2.1132820688  MEMB      98              0.0000000000
     11374        98  SOPE      H13Y           11.4985454148       -0.4056684419       -3.1000057188  MEMB      98              0.0000000000
     11375        98  SOPE      C314           10.9129137347       -1.1579658312       -1.0330734690  MEMB      98              0.0000000000
     11376        98  SOPE      H14X           11.9826292291       -0.9772254269       -0.7935691558  MEMB      98              0.0000000000
     11377        98  SOPE      H14Y           10.8266050997       -2.2541836499       -1.1917502780  MEMB      98              0.0000000000
     11378        98  SOPE      C315           10.0681085662       -0.7611307728        0.2364756137  MEMB      98              0.0000000000
     11379        98  SOPE      H15X            9.0195783846       -0.9751693580       -0.0620103444  MEMB      98              0.0000000000
     11380        98  SOPE      H15Y           10.2249756060        0.3381188010        0.2734004497  MEMB      98              0.0000000000
     11381        98  SOPE      C316           10.4558237181       -1.6107396756        1.5147566611  MEMB      98              0.0000000000
     11382        98  SOPE      H16X            9.8717687973       -1.2039135853        2.3678072097  MEMB      98              0.0000000000
     11383        98  SOPE      H16Y           11.5435166106       -1.4455371847        1.6695272707  MEMB      98              0.0000000000
     11384        98  SOPE      C317            9.9865618404       -3.0572870267        1.4872101469  MEMB      98              0.0000000000
     11385        98  SOPE      H17X           10.2339850454       -3.2561734549        2.5518915180  MEMB      98              0.0000000000
     11386        98  SOPE      H17Y           10.4892074010       -3.7193439013        0.7500875197  MEMB      98              0.0000000000
     11387        98  SOPE      C318            8.5372268705       -3.3070516272        1.3500502514  MEMB      98              0.0000000000
     11388        98  SOPE      H18X            8.3073010011       -4.3740278611        1.5574554865  MEMB      98              0.0000000000
     11389        98  SOPE      H18Y            8.1366535245       -3.0390382780        0.3490346783  MEMB      98              0.0000000000
     11390        98  SOPE      H18Z            7.9696251414       -2.7620570008        2.1343520631  MEMB      98              0.0000000000
     11391        99  SAPC      N               0.5145429282        6.7159159125      -20.4307902514  MEMB      99              0.0000000000
     11392        99  SAPC      C12             1.6910141069        5.8001411913      -20.7402080788  MEMB      99              0.0000000000
     11393        99  SAPC      H12A            2.2191332158        6.2963959911      -21.5409711584  MEMB      99              0.0000000000
     11394        99  SAPC      H12B            1.3328785491        4.8253876842      -21.0368467263  MEMB      99              0.0000000000
     11395        99  SAPC      C13             0.8913213665        8.1801019567      -20.0839159708  MEMB      99              0.0000000000
     11396        99  SAPC      H13A            1.2548623082        8.2855570229      -19.0724234402  MEMB      99              0.0000000000
     11397        99  SAPC      H13B            1.6714483810        8.4748088661      -20.7701736600  MEMB      99              0.0000000000
     11398        99  SAPC      H13C            0.0982595165        8.9050161493      -20.1932441619  MEMB      99              0.0000000000
     11399        99  SAPC      C14            -0.3216597957        6.8513232747      -21.6797918854  MEMB      99              0.0000000000
     11400        99  SAPC      H14A            0.2327976043        7.1236799851      -22.5656808057  MEMB      99              0.0000000000
     11401        99  SAPC      H14B           -0.8277999416        5.8974230240      -21.6970089206  MEMB      99              0.0000000000
     11402        99  SAPC      H14C           -0.9552431938        7.6576213354      -21.3408888662  MEMB      99              0.0000000000
     11403        99  SAPC      C15            -0.3812925355        6.2350333498      -19.3432024569  MEMB      99              0.0000000000
     11404        99  SAPC      H15A           -1.1197870462        7.0062997056      -19.1814182818  MEMB      99              0.0000000000
     11405        99  SAPC      H15B           -0.8752498949        5.3209174859      -19.6378176009  MEMB      99              0.0000000000
     11406        99  SAPC      H15C            0.2641965812        6.0133769072      -18.5061766239  MEMB      99              0.0000000000
     11407        99  SAPC      C11             2.7146817921        5.5077537621      -19.6691238111  MEMB      99              0.0000000000
     11408        99  SAPC      H11A            3.4149796893        4.7420449950      -20.0661047428  MEMB      99              0.0000000000
     11409        99  SAPC      H11B            2.1810538003        5.0288338497      -18.8204791065  MEMB      99              0.0000000000
     11410        99  SAPC      P               4.8397684445        7.1031026598      -19.6827109063  MEMB      99              0.0000000000
     11411        99  SAPC      O13             5.8752255627        6.2821509719      -19.1520649112  MEMB      99              0.0000000000
     11412        99  SAPC      O14             4.7116734368        7.2760716919      -21.1086222290  MEMB      99              0.0000000000
     11413        99  SAPC      O12             3.3829819940        6.6618092511      -19.1738088652  MEMB      99              0.0000000000
     11414        99  SAPC      O11             4.9310209555        8.5203501540      -18.9357605842  MEMB      99              0.0000000000
     11415        99  SAPC      C1              3.7735405280        9.1148540575      -18.3384729256  MEMB      99              0.0000000000
     11416        99  SAPC      HA              3.0179750575        9.3117841720      -19.1288274937  MEMB      99              0.0000000000
     11417        99  SAPC      HB              3.3367275269        8.4482788787      -17.5643974759  MEMB      99              0.0000000000
     11418        99  SAPC      C2              4.2390827638       10.3241094548      -17.4428259126  MEMB      99              0.0000000000
     11419        99  SAPC      HS              4.8556712701       10.9993232029      -18.0738773854  MEMB      99              0.0000000000
     11420        99  SAPC      O21             5.1387875745        9.7518892260      -16.4855334379  MEMB      99              0.0000000000
     11421        99  SAPC      C21             5.9524895972       10.7044313660      -15.8967806937  MEMB      99              0.0000000000
     11422        99  SAPC      O22             5.9768265647       11.8718124222      -16.3090456663  MEMB      99              0.0000000000
     11423        99  SAPC      C22             6.7073464013        9.9144619002      -14.7990362305  MEMB      99              0.0000000000
     11424        99  SAPC      H2R             5.9361036276        9.7861392341      -14.0097079458  MEMB      99              0.0000000000
     11425        99  SAPC      H2S             7.0894265083        8.9839824831      -15.2707822980  MEMB      99              0.0000000000
     11426        99  SAPC      C3              3.1453244347       11.0759780917      -16.7475444552  MEMB      99              0.0000000000
     11427        99  SAPC      HX              2.4815001798       11.5036189182      -17.5290695591  MEMB      99              0.0000000000
     11428        99  SAPC      HY              3.5757055847       11.9317001677      -16.1846657287  MEMB      99              0.0000000000
     11429        99  SAPC      O31             2.4235137550       10.1584549253      -15.8543924145  MEMB      99              0.0000000000
     11430        99  SAPC      C31             2.8616848174       10.2876206150      -14.5697043390  MEMB      99              0.0000000000
     11431        99  SAPC      O32             3.4608650690       11.2733369394      -14.0594162239  MEMB      99              0.0000000000
     11432        99  SAPC      C32             2.3354665070        9.0945658316      -13.7806080365  MEMB      99              0.0000000000
     11433        99  SAPC      H2X             2.4433724262        8.2234169971      -14.4616198467  MEMB      99              0.0000000000
     11434        99  SAPC      H2Y             1.2621165527        9.2140449622      -13.5199059760  MEMB      99              0.0000000000
     11435        99  SAPC      C23             7.9348399923       10.7715813870      -14.3759031536  MEMB      99              0.0000000000
     11436        99  SAPC      H3R             7.5720174222       11.7604040499      -14.0224759132  MEMB      99              0.0000000000
     11437        99  SAPC      H3S             8.5022169459       11.0780595340      -15.2805999532  MEMB      99              0.0000000000
     11438        99  SAPC      C24             8.8107180460       10.1174072880      -13.3857382152  MEMB      99              0.0000000000
     11439        99  SAPC      H4R             8.1050785822        9.6936647861      -12.6395231668  MEMB      99              0.0000000000
     11440        99  SAPC      H4S             9.3921408902       10.9380413974      -12.9136916350  MEMB      99              0.0000000000
     11441        99  SAPC      C25             9.7991139247        9.0364328897      -13.8929274855  MEMB      99              0.0000000000
     11442        99  SAPC      H5R            10.5763361920        9.4881165298      -14.5268889754  MEMB      99              0.0000000000
     11443        99  SAPC      C26             9.8121685965        7.6803171881      -13.5986461176  MEMB      99              0.0000000000
     11444        99  SAPC      H6R            10.6562777216        7.0755830628      -13.9616565754  MEMB      99              0.0000000000
     11445        99  SAPC      C27             8.7459909151        6.9206195416      -12.8274328894  MEMB      99              0.0000000000
     11446        99  SAPC      H7R             8.9339172183        5.8786009796      -13.1638882124  MEMB      99              0.0000000000
     11447        99  SAPC      H7S             7.7375638334        7.3340739245      -13.0429589241  MEMB      99              0.0000000000
     11448        99  SAPC      C28             8.9378930225        7.0211711768      -11.2878725392  MEMB      99              0.0000000000
     11449        99  SAPC      H8R             9.7183447804        7.7374593817      -10.9915172090  MEMB      99              0.0000000000
     11450        99  SAPC      C29             8.0931721383        6.6586464614      -10.3200319018  MEMB      99              0.0000000000
     11451        99  SAPC      H9R             8.4142871081        6.9557826606       -9.3107769961  MEMB      99              0.0000000000
     11452        99  SAPC      C210            6.7497486465        5.9784861113      -10.3850842902  MEMB      99              0.0000000000
     11453        99  SAPC      H10R            6.4158599118        5.7971008468      -11.4290855112  MEMB      99              0.0000000000
     11454        99  SAPC      H10S            6.0845992193        6.7712977564       -9.9809225725  MEMB      99              0.0000000000
     11455        99  SAPC      C211            6.5358796289        4.7353074516       -9.5189594050  MEMB      99              0.0000000000
     11456        99  SAPC      H11R            6.7916785673        3.8201305644      -10.0730518400  MEMB      99              0.0000000000
     11457        99  SAPC      C212            6.2289752231        4.7293358254       -8.2070284286  MEMB      99              0.0000000000
     11458        99  SAPC      H12R            6.1397344112        3.7694792952       -7.6772063552  MEMB      99              0.0000000000
     11459        99  SAPC      C213            6.0058997164        5.8667883959       -7.3168353080  MEMB      99              0.0000000000
     11460        99  SAPC      H13R            6.9198452056        6.4955761755       -7.3772571974  MEMB      99              0.0000000000
     11461        99  SAPC      H13S            5.8340372453        5.5608349029       -6.2627112138  MEMB      99              0.0000000000
     11462        99  SAPC      C214            4.7491522542        6.7679642489       -7.5310473618  MEMB      99              0.0000000000
     11463        99  SAPC      H14R            4.8648083616        7.7538634241       -8.0049952836  MEMB      99              0.0000000000
     11464        99  SAPC      C215            3.4545452179        6.4803833320       -7.1449389424  MEMB      99              0.0000000000
     11465        99  SAPC      H15R            2.7235063482        7.2672731023       -7.3823979884  MEMB      99              0.0000000000
     11466        99  SAPC      C216            3.0810053889        5.2340617516       -6.3934094397  MEMB      99              0.0000000000
     11467        99  SAPC      H16R            4.0124509222        4.6449755672       -6.2530264838  MEMB      99              0.0000000000
     11468        99  SAPC      H16S            2.4747810936        4.6417499350       -7.1117268364  MEMB      99              0.0000000000
     11469        99  SAPC      C217            2.5413124014        5.4849988668       -4.9865451607  MEMB      99              0.0000000000
     11470        99  SAPC      H17R            1.9042508989        4.6199545812       -4.7033987568  MEMB      99              0.0000000000
     11471        99  SAPC      H17S            1.8247156241        6.3300695735       -4.9049030197  MEMB      99              0.0000000000
     11472        99  SAPC      C218            3.7829502451        5.7328831358       -4.0458184959  MEMB      99              0.0000000000
     11473        99  SAPC      H18R            4.4919181190        6.4852756814       -4.4527470932  MEMB      99              0.0000000000
     11474        99  SAPC      H18S            4.3803710474        4.8110347949       -3.8796715465  MEMB      99              0.0000000000
     11475        99  SAPC      C219            3.2318432093        6.3344840143       -2.7420750738  MEMB      99              0.0000000000
     11476        99  SAPC      H19R            2.4407010613        5.7200148910       -2.2616126754  MEMB      99              0.0000000000
     11477        99  SAPC      H19S            2.7213553241        7.3037221557       -2.9272791003  MEMB      99              0.0000000000
     11478        99  SAPC      C220            4.2050002061        6.7759159440       -1.6987674159  MEMB      99              0.0000000000
     11479        99  SAPC      H20R            4.8424536896        7.6000164005       -2.0845553060  MEMB      99              0.0000000000
     11480        99  SAPC      H20S            4.8135074856        5.9795475974       -1.2193532929  MEMB      99              0.0000000000
     11481        99  SAPC      H20T            3.6895811428        7.2017328356       -0.8114421794  MEMB      99              0.0000000000
     11482        99  SAPC      C33             3.2093937046        8.8667265534      -12.6096985782  MEMB      99              0.0000000000
     11483        99  SAPC      H3X             3.1849353212        9.7728858100      -11.9673603739  MEMB      99              0.0000000000
     11484        99  SAPC      H3Y             4.2699595167        8.6488489041      -12.8587979500  MEMB      99              0.0000000000
     11485        99  SAPC      C34             2.7840884268        7.6692197881      -11.7116805106  MEMB      99              0.0000000000
     11486        99  SAPC      H4X             3.6410474440        7.5833246187      -11.0098508358  MEMB      99              0.0000000000
     11487        99  SAPC      H4Y             2.7638720163        6.6918282943      -12.2395229301  MEMB      99              0.0000000000
     11488        99  SAPC      C35             1.5248892803        7.6598052096      -10.9228713081  MEMB      99              0.0000000000
     11489        99  SAPC      H5X             1.6021836218        6.8216268283      -10.1977475980  MEMB      99              0.0000000000
     11490        99  SAPC      H5Y             0.7103865966        7.4701221075      -11.6542573779  MEMB      99              0.0000000000
     11491        99  SAPC      C36             1.3586002732        8.8139875804       -9.9097404792  MEMB      99              0.0000000000
     11492        99  SAPC      H6X             2.3332613188        9.3470831841       -9.8968554490  MEMB      99              0.0000000000
     11493        99  SAPC      H6Y             1.1976089188        8.6292174340       -8.8261067884  MEMB      99              0.0000000000
     11494        99  SAPC      C37             0.4234963806        9.8930068040      -10.4243556796  MEMB      99              0.0000000000
     11495        99  SAPC      H7X            -0.5701928109        9.4161694500      -10.2846089345  MEMB      99              0.0000000000
     11496        99  SAPC      H7Y             0.5071770241        9.8992931350      -11.5321821766  MEMB      99              0.0000000000
     11497        99  SAPC      C38             0.7331232565       11.3371027016       -9.9338218398  MEMB      99              0.0000000000
     11498        99  SAPC      H8X            -0.0473408581       11.9640032737      -10.4156858479  MEMB      99              0.0000000000
     11499        99  SAPC      H8Y             1.7126621326       11.6801428744      -10.3302407176  MEMB      99              0.0000000000
     11500        99  SAPC      C39             0.6307144965       11.4203559313       -8.4336059618  MEMB      99              0.0000000000
     11501        99  SAPC      H9X            -0.1856798421       10.7550711099       -8.0797458583  MEMB      99              0.0000000000
     11502        99  SAPC      H9Y             0.2137134068       12.4443416168       -8.3245923005  MEMB      99              0.0000000000
     11503        99  SAPC      C310            2.0049418750       11.4561364900       -7.7524910578  MEMB      99              0.0000000000
     11504        99  SAPC      H10X            2.6101644441       12.2629487044       -8.2184102061  MEMB      99              0.0000000000
     11505        99  SAPC      H10Y            2.3531207734       10.4753025050       -8.1411505246  MEMB      99              0.0000000000
     11506        99  SAPC      C311            1.9328468393       11.7391853266       -6.2524399321  MEMB      99              0.0000000000
     11507        99  SAPC      H11X            1.4454142112       10.9069700364       -5.7009438912  MEMB      99              0.0000000000
     11508        99  SAPC      H11Y            1.2688336474       12.6074512134       -6.0536384637  MEMB      99              0.0000000000
     11509        99  SAPC      C312            3.3347317905       12.1124125184       -5.7323799201  MEMB      99              0.0000000000
     11510        99  SAPC      H12X            3.3172488545       12.6758503003       -4.7750125719  MEMB      99              0.0000000000
     11511        99  SAPC      H12Y            3.7796271459       12.8816447781       -6.3992165424  MEMB      99              0.0000000000
     11512        99  SAPC      C313            4.2568219760       10.9051800015       -5.5927888010  MEMB      99              0.0000000000
     11513        99  SAPC      H13X            5.2012118292       11.3563954869       -5.2201579368  MEMB      99              0.0000000000
     11514        99  SAPC      H13Y            4.3607999564       10.4404401423       -6.5965449151  MEMB      99              0.0000000000
     11515        99  SAPC      C314            3.8700997108        9.8154965329       -4.5609060827  MEMB      99              0.0000000000
     11516        99  SAPC      H14X            4.6666790600        9.0478588709       -4.6634474267  MEMB      99              0.0000000000
     11517        99  SAPC      H14Y            2.9935838929        9.2493923592       -4.9424381854  MEMB      99              0.0000000000
     11518        99  SAPC      C315            3.8192645906       10.3086480600       -3.0421136676  MEMB      99              0.0000000000
     11519        99  SAPC      H15X            3.2109984300        9.5425643141       -2.5153795723  MEMB      99              0.0000000000
     11520        99  SAPC      H15Y            3.1613997183       11.2019107818       -2.9819776613  MEMB      99              0.0000000000
     11521        99  SAPC      C316            5.2454163588       10.3973093125       -2.5787919150  MEMB      99              0.0000000000
     11522        99  SAPC      H16X            5.7752324066       11.1552019720       -3.1945966855  MEMB      99              0.0000000000
     11523        99  SAPC      H16Y            5.6568341561        9.3976337069       -2.8351224515  MEMB      99              0.0000000000
     11524        99  SAPC      C317            5.5820603677       10.6936029279       -1.0811330925  MEMB      99              0.0000000000
     11525        99  SAPC      H17X            6.6898429166       10.7763735938       -1.0981083315  MEMB      99              0.0000000000
     11526        99  SAPC      H17Y            5.3460480610        9.7018278034       -0.6395432586  MEMB      99              0.0000000000
     11527        99  SAPC      C318            4.8719398154       11.9604258496       -0.5331939052  MEMB      99              0.0000000000
     11528        99  SAPC      H18X            4.7395202647       12.8296849427       -1.2122923706  MEMB      99              0.0000000000
     11529        99  SAPC      H18Y            5.3974113633       12.2861850423        0.3898896611  MEMB      99              0.0000000000
     11530        99  SAPC      H18Z            3.8731334145       11.5500348308       -0.2718781449  MEMB      99              0.0000000000
     11531       100  SAPE      N              -1.1835630539       -7.6672271497      -22.0405311200  MEMB      100             0.0000000000
     11532       100  SAPE      HN1            -1.4605504771       -8.4844948266      -21.4600559311  MEMB      100             0.0000000000
     11533       100  SAPE      HN2            -1.9882367473       -7.1620463684      -22.4634880804  MEMB      100             0.0000000000
     11534       100  SAPE      HN3            -0.3810506778       -7.9589830810      -22.6342080650  MEMB      100             0.0000000000
     11535       100  SAPE      C12            -0.6210247090       -6.6692511719      -21.1209353606  MEMB      100             0.0000000000
     11536       100  SAPE      H12A           -0.5275561202       -5.7190490804      -21.6890027541  MEMB      100             0.0000000000
     11537       100  SAPE      H12B            0.4240279808       -6.9614766388      -20.8826283327  MEMB      100             0.0000000000
     11538       100  SAPE      C11            -1.5413090550       -6.4573479021      -19.9402730907  MEMB      100             0.0000000000
     11539       100  SAPE      H11A           -1.3553526785       -5.5827999088      -19.2807982900  MEMB      100             0.0000000000
     11540       100  SAPE      H11B           -1.4745324817       -7.2655687752      -19.1809043673  MEMB      100             0.0000000000
     11541       100  SAPE      P              -4.1549480816       -6.5167964660      -19.3120703268  MEMB      100             0.0000000000
     11542       100  SAPE      O13            -3.7931363333       -6.3050478279      -17.9330787237  MEMB      100             0.0000000000
     11543       100  SAPE      O14            -5.2171581663       -5.7452166863      -19.9235944834  MEMB      100             0.0000000000
     11544       100  SAPE      O12            -2.9411735154       -6.3388488287      -20.2940155209  MEMB      100             0.0000000000
     11545       100  SAPE      O11            -4.4578385460       -8.1036895813      -19.4355013843  MEMB      100             0.0000000000
     11546       100  SAPE      C1             -4.7862614865       -8.6726892890      -20.6915956718  MEMB      100             0.0000000000
     11547       100  SAPE      HA             -5.4945764329       -8.1540150302      -21.3724686469  MEMB      100             0.0000000000
     11548       100  SAPE      HB             -3.8831477987       -8.6775660630      -21.3386526795  MEMB      100             0.0000000000
     11549       100  SAPE      C2             -5.2316473591      -10.1641548526      -20.5069207439  MEMB      100             0.0000000000
     11550       100  SAPE      HS             -5.7555810197      -10.5757673834      -21.3959593724  MEMB      100             0.0000000000
     11551       100  SAPE      O21            -6.0402467134      -10.2786231116      -19.3214264137  MEMB      100             0.0000000000
     11552       100  SAPE      C21            -7.2191098780       -9.6510557731      -19.3992667204  MEMB      100             0.0000000000
     11553       100  SAPE      O22            -7.7436474367       -9.2249912900      -20.4074209125  MEMB      100             0.0000000000
     11554       100  SAPE      C22            -7.8417685726       -9.3497755057      -18.0389886284  MEMB      100             0.0000000000
     11555       100  SAPE      H2R            -8.9054489076       -9.0305895130      -18.0069785191  MEMB      100             0.0000000000
     11556       100  SAPE      H2S            -7.7209101707      -10.3110974703      -17.4953210712  MEMB      100             0.0000000000
     11557       100  SAPE      C3             -3.9890633726      -11.0741173923      -20.3229219415  MEMB      100             0.0000000000
     11558       100  SAPE      HX             -3.4274979795      -11.2790918230      -21.2593783517  MEMB      100             0.0000000000
     11559       100  SAPE      HY             -4.3783389188      -12.0827403319      -20.0670609902  MEMB      100             0.0000000000
     11560       100  SAPE      O31            -3.1036769593      -10.6071592498      -19.2714470564  MEMB      100             0.0000000000
     11561       100  SAPE      C31            -3.5272882870      -10.7847272197      -18.0242420547  MEMB      100             0.0000000000
     11562       100  SAPE      O32            -4.3699540671      -11.5157778187      -17.6065674209  MEMB      100             0.0000000000
     11563       100  SAPE      C32            -2.6775865481       -9.8260092409      -17.1729907354  MEMB      100             0.0000000000
     11564       100  SAPE      H2X            -3.0452800282       -8.7785084856      -17.2161706656  MEMB      100             0.0000000000
     11565       100  SAPE      H2Y            -1.6505410186       -9.8266063676      -17.5966627750  MEMB      100             0.0000000000
     11566       100  SAPE      C23            -6.9157711053       -8.2933584072      -17.3952662202  MEMB      100             0.0000000000
     11567       100  SAPE      H3R            -6.6608377219       -7.5204364299      -18.1515210420  MEMB      100             0.0000000000
     11568       100  SAPE      H3S            -5.9422583921       -8.8270729189      -17.3535222200  MEMB      100             0.0000000000
     11569       100  SAPE      C24            -7.1609865577       -7.6332488446      -16.0443363052  MEMB      100             0.0000000000
     11570       100  SAPE      H4R            -7.6231692549       -8.3794287141      -15.3632165769  MEMB      100             0.0000000000
     11571       100  SAPE      H4S            -7.9070475214       -6.8268469296      -16.2099555827  MEMB      100             0.0000000000
     11572       100  SAPE      C25            -5.9177396242       -7.0136497109      -15.3429658404  MEMB      100             0.0000000000
     11573       100  SAPE      H5R            -5.4321943446       -6.2070388250      -15.9118457898  MEMB      100             0.0000000000
     11574       100  SAPE      C26            -5.4763283189       -7.2877444291      -14.0720653913  MEMB      100             0.0000000000
     11575       100  SAPE      H6R            -4.5934935308       -6.7054869569      -13.7694451617  MEMB      100             0.0000000000
     11576       100  SAPE      C27            -6.0007212146       -8.2265052671      -13.0387037636  MEMB      100             0.0000000000
     11577       100  SAPE      H7R            -7.0340454071       -7.8444105884      -12.8952961287  MEMB      100             0.0000000000
     11578       100  SAPE      H7S            -5.4361605014       -7.9416954398      -12.1252074780  MEMB      100             0.0000000000
     11579       100  SAPE      C28            -5.9965422242       -9.6961188009      -13.3507382234  MEMB      100             0.0000000000
     11580       100  SAPE      H8R            -5.8215320433       -9.9722139017      -14.4010445289  MEMB      100             0.0000000000
     11581       100  SAPE      C29            -6.3783758554      -10.7138559799      -12.5740709108  MEMB      100             0.0000000000
     11582       100  SAPE      H9R            -6.2369127451      -11.7630087583      -12.8728466364  MEMB      100             0.0000000000
     11583       100  SAPE      C210           -6.8636819523      -10.4281284282      -11.2476615860  MEMB      100             0.0000000000
     11584       100  SAPE      H10R           -7.8806937896      -10.8709099868      -11.1847935774  MEMB      100             0.0000000000
     11585       100  SAPE      H10S           -6.8407415522       -9.3748318880      -10.8950126327  MEMB      100             0.0000000000
     11586       100  SAPE      C211           -6.0503522442      -11.1448835278      -10.1799080976  MEMB      100             0.0000000000
     11587       100  SAPE      H11R           -4.9706410137      -10.9351992527      -10.1639040165  MEMB      100             0.0000000000
     11588       100  SAPE      C212           -6.6242857447      -11.7392206351       -9.1159599061  MEMB      100             0.0000000000
     11589       100  SAPE      H12R           -5.9365717958      -12.2196608050       -8.4044633347  MEMB      100             0.0000000000
     11590       100  SAPE      C213           -8.1419678367      -11.7914700894       -8.7993315516  MEMB      100             0.0000000000
     11591       100  SAPE      H13R           -8.5792393228      -12.6581961431       -9.3396099826  MEMB      100             0.0000000000
     11592       100  SAPE      H13S           -8.6866025215      -10.9071257852       -9.1938310099  MEMB      100             0.0000000000
     11593       100  SAPE      C214           -8.3450122779      -11.9217001471       -7.3096686807  MEMB      100             0.0000000000
     11594       100  SAPE      H14R           -8.4036136152      -12.9634707757       -6.9614168047  MEMB      100             0.0000000000
     11595       100  SAPE      C215           -8.2681497353      -10.8985352403       -6.3984992055  MEMB      100             0.0000000000
     11596       100  SAPE      H15R           -8.2763893215      -11.1257777692       -5.3222585062  MEMB      100             0.0000000000
     11597       100  SAPE      C216           -8.0491791126       -9.4892471279       -6.8679580734  MEMB      100             0.0000000000
     11598       100  SAPE      H16R           -8.9030586955       -9.1341265648       -7.4836690888  MEMB      100             0.0000000000
     11599       100  SAPE      H16S           -7.1163121661       -9.4857846878       -7.4713378239  MEMB      100             0.0000000000
     11600       100  SAPE      C217           -7.9714581704       -8.5519136548       -5.6302740097  MEMB      100             0.0000000000
     11601       100  SAPE      H17R           -8.8190380130       -8.6945059268       -4.9262870878  MEMB      100             0.0000000000
     11602       100  SAPE      H17S           -7.9980940607       -7.5385889117       -6.0850101437  MEMB      100             0.0000000000
     11603       100  SAPE      C218           -6.6988943715       -8.6128619530       -4.7168516627  MEMB      100             0.0000000000
     11604       100  SAPE      H18R           -5.9015637335       -8.0592882057       -5.2573516522  MEMB      100             0.0000000000
     11605       100  SAPE      H18S           -6.3749076667       -9.6755719241       -4.7179188384  MEMB      100             0.0000000000
     11606       100  SAPE      C219           -6.9307302719       -8.3064416056       -3.2135193613  MEMB      100             0.0000000000
     11607       100  SAPE      H19R           -7.8798045638       -8.8291794442       -2.9679084391  MEMB      100             0.0000000000
     11608       100  SAPE      H19S           -7.1549937607       -7.2204191590       -3.2812083610  MEMB      100             0.0000000000
     11609       100  SAPE      C220           -5.7965667899       -8.4815690218       -2.3469088522  MEMB      100             0.0000000000
     11610       100  SAPE      H20R           -4.9212689478       -8.1794350762       -2.9608229347  MEMB      100             0.0000000000
     11611       100  SAPE      H20S           -5.6798901058       -9.5312214191       -2.0020352313  MEMB      100             0.0000000000
     11612       100  SAPE      H20T           -5.8614591345       -7.6888385689       -1.5712238352  MEMB      100             0.0000000000
     11613       100  SAPE      C33            -2.5772217965      -10.3286641979      -15.7585105804  MEMB      100             0.0000000000
     11614       100  SAPE      H3X            -2.1938314056      -11.3713937779      -15.7516143376  MEMB      100             0.0000000000
     11615       100  SAPE      H3Y            -3.6380858619      -10.3554075089      -15.4296136173  MEMB      100             0.0000000000
     11616       100  SAPE      C34            -1.5549300756       -9.5803028811      -14.8758870809  MEMB      100             0.0000000000
     11617       100  SAPE      H4X            -0.5162549187       -9.8036961105      -15.2008026086  MEMB      100             0.0000000000
     11618       100  SAPE      H4Y            -1.7893864391      -10.0516108680      -13.8975106408  MEMB      100             0.0000000000
     11619       100  SAPE      C35            -1.7190860573       -8.1347781845      -14.7576277722  MEMB      100             0.0000000000
     11620       100  SAPE      H5X            -2.7711574420       -8.0087039871      -14.4236042695  MEMB      100             0.0000000000
     11621       100  SAPE      H5Y            -1.6083723084       -7.7490470178      -15.7936177125  MEMB      100             0.0000000000
     11622       100  SAPE      C36            -0.6529760067       -7.4812403011      -13.8185883401  MEMB      100             0.0000000000
     11623       100  SAPE      H6X             0.4090607017       -7.7555889047      -13.9950304136  MEMB      100             0.0000000000
     11624       100  SAPE      H6Y            -0.9306356543       -7.7967707432      -12.7901592567  MEMB      100             0.0000000000
     11625       100  SAPE      C37            -0.7293986612       -5.9224420405      -13.9377192815  MEMB      100             0.0000000000
     11626       100  SAPE      H7X            -0.6946787490       -5.7668643474      -15.0372240505  MEMB      100             0.0000000000
     11627       100  SAPE      H7Y             0.2126683733       -5.5420549624      -13.4881236328  MEMB      100             0.0000000000
     11628       100  SAPE      C38            -1.9770632852       -5.1892112682      -13.3290469224  MEMB      100             0.0000000000
     11629       100  SAPE      H8X            -2.9383890483       -5.4404520158      -13.8260899124  MEMB      100             0.0000000000
     11630       100  SAPE      H8Y            -1.8388684196       -4.0892948100      -13.4025817704  MEMB      100             0.0000000000
     11631       100  SAPE      C39            -2.2924498391       -5.6378162206      -11.8995922522  MEMB      100             0.0000000000
     11632       100  SAPE      H9X            -1.3850460295       -5.5821251989      -11.2609701828  MEMB      100             0.0000000000
     11633       100  SAPE      H9Y            -2.5516394081       -6.7175936133      -11.9345584879  MEMB      100             0.0000000000
     11634       100  SAPE      C310           -3.5341972042       -4.9670749062      -11.3384157249  MEMB      100             0.0000000000
     11635       100  SAPE      H10X           -4.3808916836       -5.1826284934      -12.0246855527  MEMB      100             0.0000000000
     11636       100  SAPE      H10Y           -3.3832180711       -3.8665810506      -11.3593746536  MEMB      100             0.0000000000
     11637       100  SAPE      C311           -3.9893796076       -5.4445816817       -9.9359401644  MEMB      100             0.0000000000
     11638       100  SAPE      H11X           -4.2514866448       -6.5210576199      -10.0185272078  MEMB      100             0.0000000000
     11639       100  SAPE      H11Y           -4.8716372765       -4.8359205229       -9.6435805616  MEMB      100             0.0000000000
     11640       100  SAPE      C312           -3.0805005437       -5.1240323358       -8.7714291641  MEMB      100             0.0000000000
     11641       100  SAPE      H12X           -3.0406773311       -4.0143798619       -8.7339307450  MEMB      100             0.0000000000
     11642       100  SAPE      H12Y           -2.1002174857       -5.4817500797       -9.1527477544  MEMB      100             0.0000000000
     11643       100  SAPE      C313           -3.3504997294       -5.8307291187       -7.4407236266  MEMB      100             0.0000000000
     11644       100  SAPE      H13X           -3.2814240306       -6.9374885775       -7.5087886513  MEMB      100             0.0000000000
     11645       100  SAPE      H13Y           -4.4015312533       -5.6693373002       -7.1188442640  MEMB      100             0.0000000000
     11646       100  SAPE      C314           -2.3295972220       -5.5143719782       -6.2922078426  MEMB      100             0.0000000000
     11647       100  SAPE      H14X           -2.6229697427       -4.4609628888       -6.0957830512  MEMB      100             0.0000000000
     11648       100  SAPE      H14Y           -1.3122163427       -5.7724439625       -6.6564282461  MEMB      100             0.0000000000
     11649       100  SAPE      C315           -2.6389216650       -6.3005142080       -5.0879502575  MEMB      100             0.0000000000
     11650       100  SAPE      H15X           -2.6776863429       -7.3724142872       -5.3775167607  MEMB      100             0.0000000000
     11651       100  SAPE      H15Y           -3.6220411038       -6.0446449810       -4.6381416424  MEMB      100             0.0000000000
     11652       100  SAPE      C316           -1.6160200548       -6.1751059467       -3.9567216437  MEMB      100             0.0000000000
     11653       100  SAPE      H16X           -1.8038022377       -5.2818522061       -3.3233525570  MEMB      100             0.0000000000
     11654       100  SAPE      H16Y           -0.6449761879       -5.9821296750       -4.4608591795  MEMB      100             0.0000000000
     11655       100  SAPE      C317           -1.2534742781       -7.5247295215       -3.2018468591  MEMB      100             0.0000000000
     11656       100  SAPE      H17X           -1.0635253794       -8.3247796985       -3.9489479759  MEMB      100             0.0000000000
     11657       100  SAPE      H17Y           -2.1715878985       -7.9041749319       -2.7044435992  MEMB      100             0.0000000000
     11658       100  SAPE      C318           -0.0151958556       -7.3643264180       -2.3283021870  MEMB      100             0.0000000000
     11659       100  SAPE      H18X            0.4570041628       -8.2640437356       -1.8790181504  MEMB      100             0.0000000000
     11660       100  SAPE      H18Y           -0.0967526661       -6.5350782536       -1.5934438605  MEMB      100             0.0000000000
     11661       100  SAPE      H18Z            0.7935052345       -7.0712389489       -3.0314551428  MEMB      100             0.0000000000
     11662       101  OSM       N              -1.7920841954       10.4410804602      -20.6563450598  MEMB      101             0.0000000000
     11663       101  OSM       C15            -0.9908778941        9.1679517038      -20.6426132969  MEMB      101             0.0000000000
     11664       101  OSM       H15A           -1.0601314471        8.7428479998      -21.6330126209  MEMB      101             0.0000000000
     11665       101  OSM       H15B           -1.3095449248        8.4907222665      -19.8640174330  MEMB      101             0.0000000000
     11666       101  OSM       H15C            0.0665309415        9.2733873632      -20.4498183790  MEMB      101             0.0000000000
     11667       101  OSM       C14            -1.3099007050       11.2644186583      -19.5318348831  MEMB      101             0.0000000000
     11668       101  OSM       H14A           -1.4190471007       10.6875078299      -18.6253797205  MEMB      101             0.0000000000
     11669       101  OSM       H14B           -1.8656363682       12.1604259321      -19.2978929857  MEMB      101             0.0000000000
     11670       101  OSM       H14C           -0.2930250406       11.5606481493      -19.7430502961  MEMB      101             0.0000000000
     11671       101  OSM       C13            -1.6384195486       11.1820980555      -22.0177808193  MEMB      101             0.0000000000
     11672       101  OSM       H13A           -0.5896102176       11.2168272098      -22.2731094033  MEMB      101             0.0000000000
     11673       101  OSM       H13B           -1.9614426307       12.2114884230      -21.9686767581  MEMB      101             0.0000000000
     11674       101  OSM       H13C           -2.3160012253       10.6691583218      -22.6842460984  MEMB      101             0.0000000000
     11675       101  OSM       C12            -3.2580215186       10.1854893226      -20.3625841865  MEMB      101             0.0000000000
     11676       101  OSM       H12A           -3.8372581086       11.0618297456      -20.1117604211  MEMB      101             0.0000000000
     11677       101  OSM       H12B           -3.3854060599        9.6109585194      -19.4569973736  MEMB      101             0.0000000000
     11678       101  OSM       C11            -4.1756418620        9.4019935485      -21.3563263127  MEMB      101             0.0000000000
     11679       101  OSM       H11A           -4.3646590593       10.1384405270      -22.1664124185  MEMB      101             0.0000000000
     11680       101  OSM       H11B           -5.1836200403        9.1342852837      -20.9733991971  MEMB      101             0.0000000000
     11681       101  OSM       P              -3.7584914678        6.8791539932      -21.3111666802  MEMB      101             0.0000000000
     11682       101  OSM       O13            -5.1370339110        6.4897064289      -21.6188797068  MEMB      101             0.0000000000
     11683       101  OSM       O14            -2.6342845774        6.0383333390      -21.8768982839  MEMB      101             0.0000000000
     11684       101  OSM       O11            -3.4813100914        7.1880530610      -19.7618348794  MEMB      101             0.0000000000
     11685       101  OSM       O12            -3.5769761406        8.2654584911      -21.8637358959  MEMB      101             0.0000000000
     11686       101  OSM       C1S            -3.1466477639        5.9819489604      -19.0536358985  MEMB      101             0.0000000000
     11687       101  OSM       H1S            -2.1715722785        5.5727636087      -19.3943941446  MEMB      101             0.0000000000
     11688       101  OSM       H1T            -3.9827954490        5.2617852098      -19.1822532816  MEMB      101             0.0000000000
     11689       101  OSM       NF             -4.3241814966        6.7152395044      -17.0012273315  MEMB      101             0.0000000000
     11690       101  OSM       HNF            -4.3186442107        7.5883013251      -16.5198323466  MEMB      101             0.0000000000
     11691       101  OSM       C2S            -3.0346819907        6.3134369498      -17.5066720037  MEMB      101             0.0000000000
     11692       101  OSM       H2S            -2.7713905655        5.3737969492      -16.9755648746  MEMB      101             0.0000000000
     11693       101  OSM       C3S            -2.0019643742        7.3639460682      -17.1499020239  MEMB      101             0.0000000000
     11694       101  OSM       H3S            -2.2222069379        8.2848964722      -17.7309910291  MEMB      101             0.0000000000
     11695       101  OSM       O3             -0.7227118826        6.9471358947      -17.6236169070  MEMB      101             0.0000000000
     11696       101  OSM       HO3            -0.8328836638        6.3750454447      -18.3866207897  MEMB      101             0.0000000000
     11697       101  OSM       C4S            -1.9405223860        7.7065681994      -15.6451128032  MEMB      101             0.0000000000
     11698       101  OSM       H4S            -2.0704510130        6.8902612990      -14.9193296072  MEMB      101             0.0000000000
     11699       101  OSM       C5S            -1.7732263211        8.9926261982      -15.1779294644  MEMB      101             0.0000000000
     11700       101  OSM       H5S            -1.6293112144        9.8153025529      -15.8938148540  MEMB      101             0.0000000000
     11701       101  OSM       C6S            -1.6800648575        9.3312730663      -13.6697062968  MEMB      101             0.0000000000
     11702       101  OSM       H6S            -2.6380680004        9.6778088051      -13.2264638644  MEMB      101             0.0000000000
     11703       101  OSM       H6T            -0.9870888159       10.1930866777      -13.5630161931  MEMB      101             0.0000000000
     11704       101  OSM       C7S            -1.1230628258        8.3450653468      -12.6186331752  MEMB      101             0.0000000000
     11705       101  OSM       H7S            -0.1325858355        7.9414517875      -12.9192540593  MEMB      101             0.0000000000
     11706       101  OSM       H7T            -1.8296359659        7.4886916650      -12.5774098855  MEMB      101             0.0000000000
     11707       101  OSM       C8S            -0.8986296631        9.0025082882      -11.2737550948  MEMB      101             0.0000000000
     11708       101  OSM       H8S            -1.8848837374        9.2936218527      -10.8531874279  MEMB      101             0.0000000000
     11709       101  OSM       H8T            -0.2151591046        9.8693153642      -11.3995898536  MEMB      101             0.0000000000
     11710       101  OSM       C9S            -0.2088871989        8.0113243915      -10.2631533851  MEMB      101             0.0000000000
     11711       101  OSM       H9S             0.7920040592        7.6638022925      -10.5974682866  MEMB      101             0.0000000000
     11712       101  OSM       H9T            -0.9236438006        7.1609406541      -10.2460787761  MEMB      101             0.0000000000
     11713       101  OSM       C10S           -0.0248375512        8.5943606174       -8.8798683155  MEMB      101             0.0000000000
     11714       101  OSM       H10S            0.6277808720        9.4934485581       -8.8727177716  MEMB      101             0.0000000000
     11715       101  OSM       H10T            0.5938883843        7.8534537986       -8.3298172554  MEMB      101             0.0000000000
     11716       101  OSM       C11S           -1.2736881273        8.8449906583       -8.0771430456  MEMB      101             0.0000000000
     11717       101  OSM       H11S           -1.7525068697        7.8424775345       -8.0725527430  MEMB      101             0.0000000000
     11718       101  OSM       H11T           -1.8997216137        9.5463980292       -8.6691150152  MEMB      101             0.0000000000
     11719       101  OSM       C12S           -1.0796153552        9.3585609819       -6.6653089538  MEMB      101             0.0000000000
     11720       101  OSM       H12S           -0.4398606974       10.2606705452       -6.7712974363  MEMB      101             0.0000000000
     11721       101  OSM       H12T           -0.5873957774        8.5618232427       -6.0676058809  MEMB      101             0.0000000000
     11722       101  OSM       C13S           -2.3636155432        9.8133685226       -5.8761080797  MEMB      101             0.0000000000
     11723       101  OSM       H13S           -3.0480631041        8.9383060007       -5.8652376531  MEMB      101             0.0000000000
     11724       101  OSM       H13T           -2.8048036398       10.5576988414       -6.5729919545  MEMB      101             0.0000000000
     11725       101  OSM       C14S           -2.2904194913       10.3754455199       -4.4904425133  MEMB      101             0.0000000000
     11726       101  OSM       H14S           -3.3449141067       10.6053730426       -4.2268239266  MEMB      101             0.0000000000
     11727       101  OSM       H14T           -1.6425270664       11.2777831336       -4.5089667824  MEMB      101             0.0000000000
     11728       101  OSM       C15S           -1.6166451507        9.4843396521       -3.4523761352  MEMB      101             0.0000000000
     11729       101  OSM       H15S           -0.5378316881        9.4737133200       -3.7176502548  MEMB      101             0.0000000000
     11730       101  OSM       H15T           -1.8344225824        8.3966910317       -3.5149435506  MEMB      101             0.0000000000
     11731       101  OSM       C16S           -1.7661812841       10.0645267008       -2.1068096008  MEMB      101             0.0000000000
     11732       101  OSM       H16S           -2.7485614718        9.7896589472       -1.6666981316  MEMB      101             0.0000000000
     11733       101  OSM       H16T           -1.5986955439       11.1593268912       -2.0191621163  MEMB      101             0.0000000000
     11734       101  OSM       C17S           -0.6490983165        9.5102763298       -1.1078149039  MEMB      101             0.0000000000
     11735       101  OSM       H17S           -0.6801801100        8.3997117866       -1.1089520246  MEMB      101             0.0000000000
     11736       101  OSM       H17T           -0.8182955380        9.9532674270       -0.1031002461  MEMB      101             0.0000000000
     11737       101  OSM       C18S            0.7712574606        9.9947338760       -1.4921912913  MEMB      101             0.0000000000
     11738       101  OSM       H18S            1.5351060877        9.4931932053       -0.8602792179  MEMB      101             0.0000000000
     11739       101  OSM       H18T            0.9440611838       11.0882407902       -1.5854774812  MEMB      101             0.0000000000
     11740       101  OSM       H18U            0.9913281396        9.6510363703       -2.5255177829  MEMB      101             0.0000000000
     11741       101  OSM       C1F            -5.4701570930        5.9439853130      -16.9462485620  MEMB      101             0.0000000000
     11742       101  OSM       OF             -5.5525748378        4.7646021925      -17.1531402843  MEMB      101             0.0000000000
     11743       101  OSM       C2F            -6.6023990343        6.6832597732      -16.2600675892  MEMB      101             0.0000000000
     11744       101  OSM       H2F            -7.5947376655        6.3893235779      -16.6640315616  MEMB      101             0.0000000000
     11745       101  OSM       H2G            -6.4777291842        7.7842098840      -16.1782924138  MEMB      101             0.0000000000
     11746       101  OSM       C3F            -6.5418885999        6.1451730208      -14.7969775350  MEMB      101             0.0000000000
     11747       101  OSM       H3F            -5.5219920256        6.1581402788      -14.3565643558  MEMB      101             0.0000000000
     11748       101  OSM       H3G            -6.7481626351        5.0642732305      -14.6439172516  MEMB      101             0.0000000000
     11749       101  OSM       C4F            -7.4630359191        6.8592004950      -13.8316389241  MEMB      101             0.0000000000
     11750       101  OSM       H4F            -7.5230290052        6.1244822455      -13.0004287884  MEMB      101             0.0000000000
     11751       101  OSM       H4G            -8.4359444003        6.8992612648      -14.3665825800  MEMB      101             0.0000000000
     11752       101  OSM       C5F            -7.0069091699        8.2308895805      -13.3766978096  MEMB      101             0.0000000000
     11753       101  OSM       H5F            -7.7593814590        8.7248857917      -12.7254877203  MEMB      101             0.0000000000
     11754       101  OSM       H5G            -6.8979737057        8.8055329029      -14.3212817471  MEMB      101             0.0000000000
     11755       101  OSM       C6F            -5.7224127873        8.2646072384      -12.5078747864  MEMB      101             0.0000000000
     11756       101  OSM       H6F            -5.4592035945        9.3350247111      -12.3691365061  MEMB      101             0.0000000000
     11757       101  OSM       H6G            -4.8893935795        7.8527354068      -13.1167766544  MEMB      101             0.0000000000
     11758       101  OSM       C7F            -5.8889483178        7.3431049462      -11.2459289463  MEMB      101             0.0000000000
     11759       101  OSM       H7F            -5.7402949955        6.2792798958      -11.5296531990  MEMB      101             0.0000000000
     11760       101  OSM       H7G            -6.9031884418        7.5082885462      -10.8236112481  MEMB      101             0.0000000000
     11761       101  OSM       C8F            -4.8174073300        7.7197626717      -10.1656748730  MEMB      101             0.0000000000
     11762       101  OSM       H8F            -3.8497322655        7.7529169847      -10.7104929089  MEMB      101             0.0000000000
     11763       101  OSM       H8G            -4.7646248268        6.9029993734       -9.4143872394  MEMB      101             0.0000000000
     11764       101  OSM       C9F            -4.9475261366        9.0994663974       -9.5532063693  MEMB      101             0.0000000000
     11765       101  OSM       H9F            -4.3224356243        9.8634402554      -10.0385992850  MEMB      101             0.0000000000
     11766       101  OSM       C10F           -5.9048505934        9.5262985058       -8.6073037730  MEMB      101             0.0000000000
     11767       101  OSM       H10F           -6.0791840649       10.5881888639       -8.3792752280  MEMB      101             0.0000000000
     11768       101  OSM       C11F           -6.9752905803        8.6032130835       -8.0357852389  MEMB      101             0.0000000000
     11769       101  OSM       H11F           -6.9965584821        7.6166248583       -8.5461887052  MEMB      101             0.0000000000
     11770       101  OSM       H11G           -8.0034354708        8.9322299726       -8.2984389004  MEMB      101             0.0000000000
     11771       101  OSM       C12F           -7.0518143133        8.6122387698       -6.5299595397  MEMB      101             0.0000000000
     11772       101  OSM       H12F           -7.8015389842        7.8407624799       -6.2523655772  MEMB      101             0.0000000000
     11773       101  OSM       H12G           -7.4640456240        9.5789020243       -6.1694758128  MEMB      101             0.0000000000
     11774       101  OSM       C13F           -5.7007483932        8.5007153887       -5.9087680458  MEMB      101             0.0000000000
     11775       101  OSM       H13F           -5.1629209485        9.4570873017       -6.0831680023  MEMB      101             0.0000000000
     11776       101  OSM       H13G           -5.2503181553        7.5535634882       -6.2752881235  MEMB      101             0.0000000000
     11777       101  OSM       C14F           -5.8470671733        8.3045141410       -4.3370645224  MEMB      101             0.0000000000
     11778       101  OSM       H14F           -6.5141382748        9.0924588997       -3.9266009103  MEMB      101             0.0000000000
     11779       101  OSM       H14G           -4.8232907871        8.4218846695       -3.9218211431  MEMB      101             0.0000000000
     11780       101  OSM       C15F           -6.3798213933        6.9523538967       -3.8746203754  MEMB      101             0.0000000000
     11781       101  OSM       H15F           -5.5756210649        6.1884220864       -3.9377919019  MEMB      101             0.0000000000
     11782       101  OSM       H15G           -7.1698554547        6.6959720829       -4.6124790456  MEMB      101             0.0000000000
     11783       101  OSM       C16F           -7.0410578212        6.8733284444       -2.4692930945  MEMB      101             0.0000000000
     11784       101  OSM       H16F           -7.3596681226        5.8474928617       -2.1856210221  MEMB      101             0.0000000000
     11785       101  OSM       H16G           -7.9628647028        7.4856275038       -2.5676952485  MEMB      101             0.0000000000
     11786       101  OSM       C17F           -6.3398704399        7.4544133281       -1.2453563307  MEMB      101             0.0000000000
     11787       101  OSM       H17F           -7.0335052114        7.3078704454       -0.3899519019  MEMB      101             0.0000000000
     11788       101  OSM       H17G           -6.1764198007        8.5523936325       -1.2905671605  MEMB      101             0.0000000000
     11789       101  OSM       C18F           -4.9980762223        6.8513096535       -0.9400864606  MEMB      101             0.0000000000
     11790       101  OSM       H18F           -4.4627254236        6.6392883127       -1.8902272423  MEMB      101             0.0000000000
     11791       101  OSM       H18G           -5.1524534229        5.8793326058       -0.4245781578  MEMB      101             0.0000000000
     11792       101  OSM       H18H           -4.3708275001        7.4592027987       -0.2535406176  MEMB      101             0.0000000000
     11793       102  SAPS      N              -9.3985815547       -4.6708215857      -21.4277993377  MEMB      102             0.0000000000
     11794       102  SAPS      HN1           -10.2528606656       -5.1024891717      -21.8345797910  MEMB      102             0.0000000000
     11795       102  SAPS      HN2            -8.4710459744       -4.8553174018      -21.8605104856  MEMB      102             0.0000000000
     11796       102  SAPS      HN3            -9.2536257793       -5.1829731120      -20.5343293467  MEMB      102             0.0000000000
     11797       102  SAPS      C12            -9.7192616126       -3.1754755421      -21.1335053675  MEMB      102             0.0000000000
     11798       102  SAPS      H12A           -8.8165515693       -2.6848007592      -20.8007099206  MEMB      102             0.0000000000
     11799       102  SAPS      C13           -10.2371608830       -2.3862501374      -22.2879160479  MEMB      102             0.0000000000
     11800       102  SAPS      O13A          -10.3160375663       -2.9167703852      -23.3988393873  MEMB      102             0.0000000000
     11801       102  SAPS      O13B          -10.2889810202       -1.1140980994      -22.1188750295  MEMB      102             0.0000000000
     11802       102  SAPS      C11           -10.8261141110       -3.0653180187      -20.0523023659  MEMB      102             0.0000000000
     11803       102  SAPS      H11A          -11.8476211118       -3.4153709405      -20.3136590063  MEMB      102             0.0000000000
     11804       102  SAPS      H11B          -10.9160448358       -1.9841983769      -19.8126905498  MEMB      102             0.0000000000
     11805       102  SAPS      P              -9.3975011398       -3.0995039686      -17.8622327402  MEMB      102             0.0000000000
     11806       102  SAPS      O13            -9.4213126599       -1.6189972834      -17.9814151931  MEMB      102             0.0000000000
     11807       102  SAPS      O14            -9.6822790475       -3.6262106404      -16.5028472918  MEMB      102             0.0000000000
     11808       102  SAPS      O12           -10.4172677129       -3.7425592023      -18.8880999356  MEMB      102             0.0000000000
     11809       102  SAPS      O11            -8.0044543760       -3.6696618184      -18.3461672637  MEMB      102             0.0000000000
     11810       102  SAPS      C1             -7.8842407613       -5.0761086418      -18.5576792996  MEMB      102             0.0000000000
     11811       102  SAPS      HA             -8.8352100301       -5.6470914117      -18.6205848221  MEMB      102             0.0000000000
     11812       102  SAPS      HB             -7.4788436503       -5.2646514878      -19.5747466175  MEMB      102             0.0000000000
     11813       102  SAPS      C2             -6.8915467196       -5.5868283130      -17.4534977412  MEMB      102             0.0000000000
     11814       102  SAPS      HS             -6.7907243140       -6.6724428819      -17.6670317462  MEMB      102             0.0000000000
     11815       102  SAPS      O21            -7.1906451881       -5.3453782059      -16.0145144681  MEMB      102             0.0000000000
     11816       102  SAPS      C21            -8.0286062495       -6.1895505989      -15.3973287155  MEMB      102             0.0000000000
     11817       102  SAPS      O22            -8.5698916929       -7.1122775905      -15.8859949486  MEMB      102             0.0000000000
     11818       102  SAPS      C22            -8.2121834945       -5.7247808266      -13.9265542194  MEMB      102             0.0000000000
     11819       102  SAPS      H2R            -7.3420624329       -6.0276416829      -13.3056794233  MEMB      102             0.0000000000
     11820       102  SAPS      H2S            -8.0814425474       -4.6215577033      -13.9377987289  MEMB      102             0.0000000000
     11821       102  SAPS      C3             -5.4607775072       -4.9569694061      -17.7487629435  MEMB      102             0.0000000000
     11822       102  SAPS      HX             -5.2698456620       -4.9863509338      -18.8428391955  MEMB      102             0.0000000000
     11823       102  SAPS      HY             -4.7187592573       -5.5876827013      -17.2140378553  MEMB      102             0.0000000000
     11824       102  SAPS      O31            -5.3935466559       -3.5383268486      -17.5004904198  MEMB      102             0.0000000000
     11825       102  SAPS      C31            -4.8464500891       -3.1403187541      -16.2981661289  MEMB      102             0.0000000000
     11826       102  SAPS      O32            -4.2570733993       -3.7564612589      -15.4612991453  MEMB      102             0.0000000000
     11827       102  SAPS      C32            -5.2279444410       -1.6626921289      -16.1301951404  MEMB      102             0.0000000000
     11828       102  SAPS      H2X            -5.9596424781       -1.3913826539      -16.9209733030  MEMB      102             0.0000000000
     11829       102  SAPS      H2Y            -4.3460551960       -1.0638337423      -16.4431825004  MEMB      102             0.0000000000
     11830       102  SAPS      C23            -9.5257082910       -6.2509624371      -13.2540612691  MEMB      102             0.0000000000
     11831       102  SAPS      H3R            -9.5394627052       -7.3517113010      -13.1041157844  MEMB      102             0.0000000000
     11832       102  SAPS      H3S           -10.3977374668       -6.0361710278      -13.9080881097  MEMB      102             0.0000000000
     11833       102  SAPS      C24            -9.9889344267       -5.4478402118      -11.9825362169  MEMB      102             0.0000000000
     11834       102  SAPS      H4R           -10.9141906754       -5.9265198064      -11.5964175785  MEMB      102             0.0000000000
     11835       102  SAPS      H4S           -10.0735133686       -4.4231081386      -12.4033590684  MEMB      102             0.0000000000
     11836       102  SAPS      C25            -8.8969837539       -5.4276165460      -10.8711890465  MEMB      102             0.0000000000
     11837       102  SAPS      H5R            -7.9499709424       -5.0050490557      -11.2380725994  MEMB      102             0.0000000000
     11838       102  SAPS      C26            -8.9977866415       -5.9479455955       -9.6644741365  MEMB      102             0.0000000000
     11839       102  SAPS      H6R            -8.1676642054       -5.7975196780       -8.9585927835  MEMB      102             0.0000000000
     11840       102  SAPS      C27           -10.2512389429       -6.7011902241       -9.1819924746  MEMB      102             0.0000000000
     11841       102  SAPS      H7R           -10.0595839786       -7.7953584122       -9.2016244852  MEMB      102             0.0000000000
     11842       102  SAPS      H7S           -11.1183686919       -6.5394113087       -9.8574443669  MEMB      102             0.0000000000
     11843       102  SAPS      C28           -10.7824741897       -6.3226601368       -7.8231973367  MEMB      102             0.0000000000
     11844       102  SAPS      H8R           -10.6309898182       -7.0281567003       -6.9929412337  MEMB      102             0.0000000000
     11845       102  SAPS      C29           -11.3561149117       -5.1576989479       -7.5308493599  MEMB      102             0.0000000000
     11846       102  SAPS      H9R           -11.7118831862       -5.0816759211       -6.4927497035  MEMB      102             0.0000000000
     11847       102  SAPS      C210          -11.5313397585       -4.0370888120       -8.4705886004  MEMB      102             0.0000000000
     11848       102  SAPS      H10R          -11.6818365254       -4.4243032294       -9.5009938277  MEMB      102             0.0000000000
     11849       102  SAPS      H10S          -10.6006212259       -3.4321881553       -8.4239062045  MEMB      102             0.0000000000
     11850       102  SAPS      C211          -12.7173648504       -3.1755357247       -8.1932117138  MEMB      102             0.0000000000
     11851       102  SAPS      H11R          -13.7286129768       -3.6079219800       -8.2137020890  MEMB      102             0.0000000000
     11852       102  SAPS      C212          -12.7178049158       -1.8614280599       -7.9038736725  MEMB      102             0.0000000000
     11853       102  SAPS      H12R          -13.7010587223       -1.4431593994       -7.6426006669  MEMB      102             0.0000000000
     11854       102  SAPS      C213          -11.4735969160       -0.9880156603       -7.7502553679  MEMB      102             0.0000000000
     11855       102  SAPS      H13R          -10.8092598390       -1.2550024273       -8.5997809322  MEMB      102             0.0000000000
     11856       102  SAPS      H13S          -10.8777817449       -1.3484219390       -6.8845578298  MEMB      102             0.0000000000
     11857       102  SAPS      C214          -11.5602060442        0.5542333427       -7.5317011474  MEMB      102             0.0000000000
     11858       102  SAPS      H14R          -11.5550344875        1.0537658559       -8.5117217318  MEMB      102             0.0000000000
     11859       102  SAPS      C215          -11.9546503411        1.1910885099       -6.4146740854  MEMB      102             0.0000000000
     11860       102  SAPS      H15R          -12.0087581444        2.2893620221       -6.4441246194  MEMB      102             0.0000000000
     11861       102  SAPS      C216          -12.3486577298        0.4676144473       -5.1397326057  MEMB      102             0.0000000000
     11862       102  SAPS      H16R          -12.6678713857       -0.5920351455       -5.2375400799  MEMB      102             0.0000000000
     11863       102  SAPS      H16S          -13.1874793118        1.0819551138       -4.7482168000  MEMB      102             0.0000000000
     11864       102  SAPS      C217          -11.3139985376        0.4761846278       -4.0188490663  MEMB      102             0.0000000000
     11865       102  SAPS      H17R          -10.6583864287        1.3713583855       -3.9626583237  MEMB      102             0.0000000000
     11866       102  SAPS      H17S          -10.6365998579       -0.3544429446       -4.3112700729  MEMB      102             0.0000000000
     11867       102  SAPS      C218          -11.8566430356        0.2130704369       -2.6532263686  MEMB      102             0.0000000000
     11868       102  SAPS      H18R          -12.5246586017        1.0759711779       -2.4447113568  MEMB      102             0.0000000000
     11869       102  SAPS      H18S          -11.0311789655        0.2490844516       -1.9105058667  MEMB      102             0.0000000000
     11870       102  SAPS      C219          -12.6485914812       -1.1369501236       -2.4653783929  MEMB      102             0.0000000000
     11871       102  SAPS      H19R          -11.9609705513       -2.0037841636       -2.5658636806  MEMB      102             0.0000000000
     11872       102  SAPS      H19S          -13.3793939589       -1.3165495374       -3.2826868352  MEMB      102             0.0000000000
     11873       102  SAPS      C220          -13.4849418852       -1.2155139009       -1.2019690479  MEMB      102             0.0000000000
     11874       102  SAPS      H20R          -14.0801194430       -2.1504171233       -1.2796894274  MEMB      102             0.0000000000
     11875       102  SAPS      H20S          -14.3013519031       -0.4757658815       -1.0585517868  MEMB      102             0.0000000000
     11876       102  SAPS      H20T          -12.9438911833       -1.3131368670       -0.2365382829  MEMB      102             0.0000000000
     11877       102  SAPS      C33            -5.6716429593       -1.2269777651      -14.7549523927  MEMB      102             0.0000000000
     11878       102  SAPS      H3X            -5.4737470352       -0.1792630531      -14.4427796627  MEMB      102             0.0000000000
     11879       102  SAPS      H3Y            -5.0418500123       -1.7751362768      -14.0220102082  MEMB      102             0.0000000000
     11880       102  SAPS      C34            -7.1664834979       -1.5373546708      -14.4775196261  MEMB      102             0.0000000000
     11881       102  SAPS      H4X            -7.3773558778       -2.6254637641      -14.5541508508  MEMB      102             0.0000000000
     11882       102  SAPS      H4Y            -7.7771623452       -0.9695675358      -15.2116925591  MEMB      102             0.0000000000
     11883       102  SAPS      C35            -7.7132631157       -1.0255346063      -13.1068805373  MEMB      102             0.0000000000
     11884       102  SAPS      H5X            -8.7218812688       -1.4880086300      -13.0509513527  MEMB      102             0.0000000000
     11885       102  SAPS      H5Y            -7.7918552642        0.0765352657      -12.9903194854  MEMB      102             0.0000000000
     11886       102  SAPS      C36            -6.8637185092       -1.5100484740      -11.9094699185  MEMB      102             0.0000000000
     11887       102  SAPS      H6X            -5.9476095925       -0.8816606374      -11.8955374447  MEMB      102             0.0000000000
     11888       102  SAPS      H6Y            -6.6499257991       -2.5732710838      -12.1506570673  MEMB      102             0.0000000000
     11889       102  SAPS      C37            -7.7125752079       -1.5876601084      -10.6187242974  MEMB      102             0.0000000000
     11890       102  SAPS      H7X            -8.5697889858       -2.2607108087      -10.8343822894  MEMB      102             0.0000000000
     11891       102  SAPS      H7Y            -8.1160530127       -0.5625005996      -10.4752863175  MEMB      102             0.0000000000
     11892       102  SAPS      C38            -6.9616093402       -2.1357153569       -9.3902865641  MEMB      102             0.0000000000
     11893       102  SAPS      H8X            -6.2683822297       -1.2834729535       -9.2246356713  MEMB      102             0.0000000000
     11894       102  SAPS      H8Y            -6.4220561912       -3.0913361924       -9.5634692475  MEMB      102             0.0000000000
     11895       102  SAPS      C39            -7.9031580743       -2.3151372824       -8.1815090517  MEMB      102             0.0000000000
     11896       102  SAPS      H9X            -8.6723225478       -3.0053333555       -8.5893526921  MEMB      102             0.0000000000
     11897       102  SAPS      H9Y            -8.4376996175       -1.3477666005       -8.0684594011  MEMB      102             0.0000000000
     11898       102  SAPS      C310           -7.2887034848       -2.8566780964       -6.8849813447  MEMB      102             0.0000000000
     11899       102  SAPS      H10X           -6.3331187566       -2.3515471566       -6.6280356570  MEMB      102             0.0000000000
     11900       102  SAPS      H10Y           -6.9875713893       -3.9188444431       -7.0092514295  MEMB      102             0.0000000000
     11901       102  SAPS      C311           -8.1098927369       -2.6418807852       -5.5572084335  MEMB      102             0.0000000000
     11902       102  SAPS      H11X           -9.0796140086       -3.1478292174       -5.7520874755  MEMB      102             0.0000000000
     11903       102  SAPS      H11Y           -8.3219830193       -1.5641011430       -5.3906851968  MEMB      102             0.0000000000
     11904       102  SAPS      C312           -7.3350949684       -3.1678543385       -4.3818440920  MEMB      102             0.0000000000
     11905       102  SAPS      H12X           -6.2842568047       -2.8120166341       -4.4404939874  MEMB      102             0.0000000000
     11906       102  SAPS      H12Y           -7.4981796568       -4.2666122939       -4.3605054511  MEMB      102             0.0000000000
     11907       102  SAPS      C313           -7.8346512659       -2.6171513879       -3.0026251130  MEMB      102             0.0000000000
     11908       102  SAPS      H13X           -8.2228117047       -1.5814983672       -3.1078630089  MEMB      102             0.0000000000
     11909       102  SAPS      H13Y           -6.9506662328       -2.7175937176       -2.3371893652  MEMB      102             0.0000000000
     11910       102  SAPS      C314           -8.9307548856       -3.3850599962       -2.2860112868  MEMB      102             0.0000000000
     11911       102  SAPS      H14X           -8.5933587642       -4.4435896503       -2.2862687003  MEMB      102             0.0000000000
     11912       102  SAPS      H14Y           -9.9009929813       -3.4169166630       -2.8263304567  MEMB      102             0.0000000000
     11913       102  SAPS      C315           -9.3157098930       -2.7175810811       -0.9010667228  MEMB      102             0.0000000000
     11914       102  SAPS      H15X           -9.8647295455       -1.7588336016       -1.0181207389  MEMB      102             0.0000000000
     11915       102  SAPS      H15Y           -8.4678075903       -2.6468338649       -0.1866590745  MEMB      102             0.0000000000
     11916       102  SAPS      C316          -10.2439340034       -3.6670907709       -0.1461459618  MEMB      102             0.0000000000
     11917       102  SAPS      H16X          -11.1836806161       -3.8533634798       -0.7087289871  MEMB      102             0.0000000000
     11918       102  SAPS      H16Y          -10.4434759696       -3.2170537546        0.8498327753  MEMB      102             0.0000000000
     11919       102  SAPS      C317           -9.5367484574       -4.9763934315        0.3355521214  MEMB      102             0.0000000000
     11920       102  SAPS      H17X           -8.7009253046       -4.7194175421        1.0208881879  MEMB      102             0.0000000000
     11921       102  SAPS      H17Y           -9.2735921774       -5.7266861805       -0.4404187461  MEMB      102             0.0000000000
     11922       102  SAPS      C318          -10.4843453633       -5.9258486299        1.2206050613  MEMB      102             0.0000000000
     11923       102  SAPS      H18X          -11.4609134743       -6.0721468486        0.7114564424  MEMB      102             0.0000000000
     11924       102  SAPS      H18Y          -10.8664060063       -5.3460201618        2.0878700774  MEMB      102             0.0000000000
     11925       102  SAPS      H18Z          -10.1019714559       -6.9032765904        1.5849487171  MEMB      102             0.0000000000
     11926       103  POPC      N              11.8707275077        2.4918984422      -20.5395458564  MEMB      103             0.0000000000
     11927       103  POPC      C12            10.6711784073        1.7183879626      -20.1102495786  MEMB      103             0.0000000000
     11928       103  POPC      H12A           10.8654561734        1.0875882159      -19.2554117497  MEMB      103             0.0000000000
     11929       103  POPC      H12B           10.5395376569        1.0516016700      -20.9495747894  MEMB      103             0.0000000000
     11930       103  POPC      C13            12.0935420718        3.4491491915      -19.3900429019  MEMB      103             0.0000000000
     11931       103  POPC      H13A           11.2560669922        4.1142037782      -19.2392517489  MEMB      103             0.0000000000
     11932       103  POPC      H13B           12.1750160604        2.8423151705      -18.5003718903  MEMB      103             0.0000000000
     11933       103  POPC      H13C           12.9960443076        3.9976636836      -19.6159230641  MEMB      103             0.0000000000
     11934       103  POPC      C14            13.1137584633        1.6401064721      -20.7430789511  MEMB      103             0.0000000000
     11935       103  POPC      H14A           13.9402315240        2.3092407099      -20.9317623211  MEMB      103             0.0000000000
     11936       103  POPC      H14B           13.3333888726        1.1523899973      -19.8048385183  MEMB      103             0.0000000000
     11937       103  POPC      H14C           12.9693358171        0.8598971092      -21.4757559592  MEMB      103             0.0000000000
     11938       103  POPC      C15            11.5694760983        3.2085683337      -21.7854743518  MEMB      103             0.0000000000
     11939       103  POPC      H15A           11.8898129404        2.6114835808      -22.6264701935  MEMB      103             0.0000000000
     11940       103  POPC      H15B           12.2700162867        4.0277315289      -21.7175398884  MEMB      103             0.0000000000
     11941       103  POPC      H15C           10.5310824629        3.4992736044      -21.8457165007  MEMB      103             0.0000000000
     11942       103  POPC      C11             9.3384703096        2.4639202968      -19.8171371177  MEMB      103             0.0000000000
     11943       103  POPC      H11A            8.5693752061        1.7818301655      -20.2385238577  MEMB      103             0.0000000000
     11944       103  POPC      H11B            9.2906444385        3.4055712164      -20.4047826102  MEMB      103             0.0000000000
     11945       103  POPC      P               8.5255586861        1.9324541713      -17.3267778175  MEMB      103             0.0000000000
     11946       103  POPC      O13             9.3720502674        0.7331976117      -17.4381016116  MEMB      103             0.0000000000
     11947       103  POPC      O14             7.0669657967        1.7067483625      -17.4206757363  MEMB      103             0.0000000000
     11948       103  POPC      O12             9.0569223297        2.8568816299      -18.4792318692  MEMB      103             0.0000000000
     11949       103  POPC      O11             8.8086358609        2.7578036929      -15.9496842513  MEMB      103             0.0000000000
     11950       103  POPC      C1             10.1942295640        3.0308786335      -15.6801447081  MEMB      103             0.0000000000
     11951       103  POPC      HA             10.0629100202        3.8486591297      -14.9396644599  MEMB      103             0.0000000000
     11952       103  POPC      HB             10.7656178460        3.3617122224      -16.5736691361  MEMB      103             0.0000000000
     11953       103  POPC      C2             10.9063190965        1.8547317280      -14.9952494154  MEMB      103             0.0000000000
     11954       103  POPC      HS             10.9473817466        1.0438562687      -15.7536132126  MEMB      103             0.0000000000
     11955       103  POPC      O21            10.1479389272        1.3757915160      -13.9151825175  MEMB      103             0.0000000000
     11956       103  POPC      C21            10.3236151627        0.1418546822      -13.5311538662  MEMB      103             0.0000000000
     11957       103  POPC      O22            11.1535556797       -0.6783522873      -13.9928587805  MEMB      103             0.0000000000
     11958       103  POPC      C22             9.1981036944       -0.1131404157      -12.4926149328  MEMB      103             0.0000000000
     11959       103  POPC      H2R             8.9650565377       -1.1981184717      -12.5458398970  MEMB      103             0.0000000000
     11960       103  POPC      H2S             8.3225829731        0.5379617787      -12.7020195991  MEMB      103             0.0000000000
     11961       103  POPC      C3             12.2883591627        2.2199588490      -14.4951192721  MEMB      103             0.0000000000
     11962       103  POPC      HX             12.9412452193        2.5189956704      -15.3428442226  MEMB      103             0.0000000000
     11963       103  POPC      HY             12.9768154379        1.4339211718      -14.1176354228  MEMB      103             0.0000000000
     11964       103  POPC      O31            12.1377510572        3.3719416858      -13.6188823135  MEMB      103             0.0000000000
     11965       103  POPC      C31            12.1333570319        3.1182469004      -12.2783577668  MEMB      103             0.0000000000
     11966       103  POPC      O32            12.2817482697        1.9841674510      -11.8671986958  MEMB      103             0.0000000000
     11967       103  POPC      C32            11.8587128452        4.4450756085      -11.4582391115  MEMB      103             0.0000000000
     11968       103  POPC      H2X            11.0532707794        5.1498450600      -11.7563730187  MEMB      103             0.0000000000
     11969       103  POPC      H2Y            12.7554825066        5.0772982482      -11.6326513623  MEMB      103             0.0000000000
     11970       103  POPC      C23             9.7062897273        0.1571817081      -11.0677689186  MEMB      103             0.0000000000
     11971       103  POPC      H3R             9.9256457029        1.2359646968      -10.9179985486  MEMB      103             0.0000000000
     11972       103  POPC      H3S            10.7409700409       -0.2474689084      -11.0638411472  MEMB      103             0.0000000000
     11973       103  POPC      C24             8.7520561810       -0.4231555703      -10.1079380711  MEMB      103             0.0000000000
     11974       103  POPC      H4R             8.3286804858       -1.3232256773      -10.6028607510  MEMB      103             0.0000000000
     11975       103  POPC      H4S             7.9982181433        0.3270365101       -9.7865961223  MEMB      103             0.0000000000
     11976       103  POPC      C25             9.5625740738       -0.8788946383       -8.8404420681  MEMB      103             0.0000000000
     11977       103  POPC      H5R            10.3509958285       -1.5636105601       -9.2197520502  MEMB      103             0.0000000000
     11978       103  POPC      H5S             8.9829869954       -1.5768041926       -8.1990986021  MEMB      103             0.0000000000
     11979       103  POPC      C26            10.0127274447        0.2678976962       -8.0310908627  MEMB      103             0.0000000000
     11980       103  POPC      H6R            10.6325037737        0.9479449074       -8.6537736207  MEMB      103             0.0000000000
     11981       103  POPC      H6S            10.5553121338       -0.1735719263       -7.1679417064  MEMB      103             0.0000000000
     11982       103  POPC      C27             8.8815319967        1.0435869645       -7.3593321121  MEMB      103             0.0000000000
     11983       103  POPC      H7R             8.3413940400        0.3702067024       -6.6599533763  MEMB      103             0.0000000000
     11984       103  POPC      H7S             8.2357028606        1.5859817064       -8.0825433575  MEMB      103             0.0000000000
     11985       103  POPC      C28             9.4295577077        2.0896851929       -6.3930232856  MEMB      103             0.0000000000
     11986       103  POPC      H8R            10.2455005699        2.6354083189       -6.9133549799  MEMB      103             0.0000000000
     11987       103  POPC      H8S             9.8032691496        1.5482925827       -5.4977277970  MEMB      103             0.0000000000
     11988       103  POPC      C29             8.4328057440        2.9526279813       -5.7070629349  MEMB      103             0.0000000000
     11989       103  POPC      H91             8.3790302477        3.9679467430       -6.1268676318  MEMB      103             0.0000000000
     11990       103  POPC      C210            7.5062443404        2.6470795759       -4.7238139164  MEMB      103             0.0000000000
     11991       103  POPC      H101            6.7559046809        3.4010835755       -4.4436922016  MEMB      103             0.0000000000
     11992       103  POPC      C211            7.4689973738        1.2606202878       -4.0948266666  MEMB      103             0.0000000000
     11993       103  POPC      H11R            8.2402639921        0.5301707542       -4.4202680510  MEMB      103             0.0000000000
     11994       103  POPC      H11S            6.4893317256        0.8206090157       -4.3793718424  MEMB      103             0.0000000000
     11995       103  POPC      C212            7.5746532345        1.3272822837       -2.4762840767  MEMB      103             0.0000000000
     11996       103  POPC      H12R            7.2314437947        0.3599749026       -2.0510256101  MEMB      103             0.0000000000
     11997       103  POPC      H12S            6.8411865923        2.1060754084       -2.1765684129  MEMB      103             0.0000000000
     11998       103  POPC      C213            9.0570900966        1.5594130800       -1.9866693928  MEMB      103             0.0000000000
     11999       103  POPC      H13R            8.9479968240        1.8082533039       -0.9094043274  MEMB      103             0.0000000000
     12000       103  POPC      H13S            9.4175763618        2.4637859137       -2.5219086469  MEMB      103             0.0000000000
     12001       103  POPC      C214           10.0273956709        0.3947015566       -2.3196182622  MEMB      103             0.0000000000
     12002       103  POPC      H14R           11.0011454291        0.8773969606       -2.5501339642  MEMB      103             0.0000000000
     12003       103  POPC      H14S            9.6625853726       -0.1906449617       -3.1905965486  MEMB      103             0.0000000000
     12004       103  POPC      C215           10.2285749289       -0.5566641916       -1.1961715213  MEMB      103             0.0000000000
     12005       103  POPC      H15R           10.2536021658       -0.0714337063       -0.1970477312  MEMB      103             0.0000000000
     12006       103  POPC      H15S           11.1450991379       -1.1572435890       -1.3794982714  MEMB      103             0.0000000000
     12007       103  POPC      C216            9.0984774061       -1.6042443373       -1.0588196860  MEMB      103             0.0000000000
     12008       103  POPC      H16R            8.2016411925       -0.9721327329       -0.8843471043  MEMB      103             0.0000000000
     12009       103  POPC      H16S            9.2724131849       -2.2155283117       -0.1475584506  MEMB      103             0.0000000000
     12010       103  POPC      C217            8.9336963291       -2.7480859509       -2.1502110126  MEMB      103             0.0000000000
     12011       103  POPC      H17R            8.9120896153       -2.2456162270       -3.1408566501  MEMB      103             0.0000000000
     12012       103  POPC      H17S            7.9058836338       -3.1465025135       -2.0116966677  MEMB      103             0.0000000000
     12013       103  POPC      C218           10.0605257425       -3.8108723949       -2.1285996417  MEMB      103             0.0000000000
     12014       103  POPC      H18R           11.0061963591       -3.3311950907       -2.4601677586  MEMB      103             0.0000000000
     12015       103  POPC      H18S            9.8933683558       -4.7659267402       -2.6710492992  MEMB      103             0.0000000000
     12016       103  POPC      H18T           10.1915508857       -4.2779856387       -1.1291218217  MEMB      103             0.0000000000
     12017       103  POPC      C33            11.7971901659        4.1011566872      -10.0035515869  MEMB      103             0.0000000000
     12018       103  POPC      H3X            12.7671723326        3.7037529868       -9.6354128137  MEMB      103             0.0000000000
     12019       103  POPC      H3Y            10.8416657516        3.6107076715       -9.7193799458  MEMB      103             0.0000000000
     12020       103  POPC      C34            11.7400279000        5.4024637324       -9.1557023093  MEMB      103             0.0000000000
     12021       103  POPC      H4X            10.7359110842        5.8776577827       -9.1718543847  MEMB      103             0.0000000000
     12022       103  POPC      H4Y            12.4407150106        6.1375900632       -9.6061995524  MEMB      103             0.0000000000
     12023       103  POPC      C35            12.1564341191        5.2300066679       -7.6036370497  MEMB      103             0.0000000000
     12024       103  POPC      H5X            13.1623578264        4.8167953016       -7.3762715846  MEMB      103             0.0000000000
     12025       103  POPC      H5Y            11.3350902560        4.5809052779       -7.2316393694  MEMB      103             0.0000000000
     12026       103  POPC      C36            12.1217407211        6.5892155487       -6.8074114274  MEMB      103             0.0000000000
     12027       103  POPC      H6X            11.0927081463        6.9409593295       -7.0347640740  MEMB      103             0.0000000000
     12028       103  POPC      H6Y            12.8822417227        7.2288958227       -7.3041696889  MEMB      103             0.0000000000
     12029       103  POPC      C37            12.4110202383        6.5483129985       -5.2740052192  MEMB      103             0.0000000000
     12030       103  POPC      H7X            12.0938421402        7.4658103239       -4.7337119250  MEMB      103             0.0000000000
     12031       103  POPC      H7Y            13.4769242694        6.6151837365       -4.9679046430  MEMB      103             0.0000000000
     12032       103  POPC      C38            11.9379972763        5.2851743326       -4.5723146366  MEMB      103             0.0000000000
     12033       103  POPC      H8X            12.6648609649        4.4794728740       -4.8107162233  MEMB      103             0.0000000000
     12034       103  POPC      H8Y            11.0000739503        4.8828926573       -5.0113930026  MEMB      103             0.0000000000
     12035       103  POPC      C39            11.9970769933        5.3451378237       -3.0557589648  MEMB      103             0.0000000000
     12036       103  POPC      H9X            11.0783086528        5.8875945508       -2.7460389569  MEMB      103             0.0000000000
     12037       103  POPC      H9Y            12.8436698213        6.0026586829       -2.7637521957  MEMB      103             0.0000000000
     12038       103  POPC      C310           12.2097363149        4.0242752238       -2.2830303607  MEMB      103             0.0000000000
     12039       103  POPC      H10X           13.3021400795        3.8268460768       -2.3277164911  MEMB      103             0.0000000000
     12040       103  POPC      H10Y           11.6596094026        3.2713535071       -2.8870086779  MEMB      103             0.0000000000
     12041       103  POPC      C311           11.8520508424        4.0557462249       -0.8093384324  MEMB      103             0.0000000000
     12042       103  POPC      H11X           10.8021530965        4.3867292831       -0.6593855630  MEMB      103             0.0000000000
     12043       103  POPC      H11Y           12.5841999836        4.7649287778       -0.3673679895  MEMB      103             0.0000000000
     12044       103  POPC      C312           12.0284817660        2.6452011603       -0.2724955854  MEMB      103             0.0000000000
     12045       103  POPC      H12X           12.8849440115        2.2075763148       -0.8286223982  MEMB      103             0.0000000000
     12046       103  POPC      H12Y           11.0921597791        2.0874753978       -0.4882820270  MEMB      103             0.0000000000
     12047       103  POPC      C313           12.2452065043        2.5919348799        1.2811071341  MEMB      103             0.0000000000
     12048       103  POPC      H13X           13.3056729929        2.8926981726        1.4199353585  MEMB      103             0.0000000000
     12049       103  POPC      H13Y           12.1716435439        1.5057531662        1.5027348991  MEMB      103             0.0000000000
     12050       103  POPC      C314           11.3141138722        3.5066367155        2.2040658082  MEMB      103             0.0000000000
     12051       103  POPC      H14X           11.5462027380        4.5497009557        1.8999739608  MEMB      103             0.0000000000
     12052       103  POPC      H14Y           11.7250109007        3.4976459956        3.2362509083  MEMB      103             0.0000000000
     12053       103  POPC      C315            9.8255145747        3.3458023384        2.0640124839  MEMB      103             0.0000000000
     12054       103  POPC      H15X            9.4152989695        3.6462176428        1.0761901921  MEMB      103             0.0000000000
     12055       103  POPC      H15Y            9.2767257105        3.9618014316        2.8081217647  MEMB      103             0.0000000000
     12056       103  POPC      C316            9.3516572588        1.8911760945        2.3144626137  MEMB      103             0.0000000000
     12057       103  POPC      H16X            8.2675718219        1.7499753184        2.1166197638  MEMB      103             0.0000000000
     12058       103  POPC      H16Y            9.5400616922        1.6615116134        3.3850142889  MEMB      103             0.0000000000
     12059       103  POPC      H16Z            9.9029204578        1.1573226960        1.6884531554  MEMB      103             0.0000000000
     12060       104  SAPE      N              -8.9808864964        7.9773201520      -18.5812706748  MEMB      104             0.0000000000
     12061       104  SAPE      HN1            -9.3701944735        8.9393719432      -18.6483196335  MEMB      104             0.0000000000
     12062       104  SAPE      HN2            -8.1967510866        7.8487736330      -17.9102956306  MEMB      104             0.0000000000
     12063       104  SAPE      HN3            -8.6125166803        7.6309489063      -19.4900778384  MEMB      104             0.0000000000
     12064       104  SAPE      C12           -10.0900146859        7.0235686215      -18.3054784261  MEMB      104             0.0000000000
     12065       104  SAPE      H12A          -10.7775410222        7.4979422540      -17.5729495957  MEMB      104             0.0000000000
     12066       104  SAPE      H12B           -9.6361398374        6.1639293835      -17.7675759346  MEMB      104             0.0000000000
     12067       104  SAPE      C11           -10.8983327114        6.5115131682      -19.5589451946  MEMB      104             0.0000000000
     12068       104  SAPE      H11A          -11.4134596874        7.4388836247      -19.8890198213  MEMB      104             0.0000000000
     12069       104  SAPE      H11B          -11.7127147386        5.7899352413      -19.3343831414  MEMB      104             0.0000000000
     12070       104  SAPE      P              -9.6037209730        4.6287349407      -20.8307501983  MEMB      104             0.0000000000
     12071       104  SAPE      O13           -10.5759232943        4.0315407080      -21.6896285470  MEMB      104             0.0000000000
     12072       104  SAPE      O14            -8.1036686902        4.6465851137      -21.0760958603  MEMB      104             0.0000000000
     12073       104  SAPE      O12           -10.0177554794        6.1052944366      -20.5728285420  MEMB      104             0.0000000000
     12074       104  SAPE      O11            -9.8272954476        3.9247271027      -19.3850025330  MEMB      104             0.0000000000
     12075       104  SAPE      C1             -9.2002855072        2.7176001172      -19.0577917023  MEMB      104             0.0000000000
     12076       104  SAPE      HA             -8.8704883933        2.1996111800      -19.9836656673  MEMB      104             0.0000000000
     12077       104  SAPE      HB             -8.2434729905        3.0641384036      -18.6119867873  MEMB      104             0.0000000000
     12078       104  SAPE      C2            -10.0494918660        1.8479528241      -18.0991141191  MEMB      104             0.0000000000
     12079       104  SAPE      HS            -10.5614556496        1.0630509064      -18.6958916459  MEMB      104             0.0000000000
     12080       104  SAPE      O21           -10.9896309762        2.5936838852      -17.3085322453  MEMB      104             0.0000000000
     12081       104  SAPE      C21           -12.1803004194        2.0936024224      -17.1338654986  MEMB      104             0.0000000000
     12082       104  SAPE      O22           -12.5367826204        0.9626759695      -17.3832817186  MEMB      104             0.0000000000
     12083       104  SAPE      C22           -13.0994719239        3.2784873577      -16.5821719863  MEMB      104             0.0000000000
     12084       104  SAPE      H2R           -13.8430675058        3.6537988840      -17.3173780342  MEMB      104             0.0000000000
     12085       104  SAPE      H2S           -13.7119550415        2.7938077184      -15.7920640695  MEMB      104             0.0000000000
     12086       104  SAPE      C3             -9.0766809873        1.0481652877      -17.2457723751  MEMB      104             0.0000000000
     12087       104  SAPE      HX             -8.4192555095        0.4731936088      -17.9324457942  MEMB      104             0.0000000000
     12088       104  SAPE      HY             -9.6986776728        0.3464909094      -16.6498742904  MEMB      104             0.0000000000
     12089       104  SAPE      O31            -8.2586194842        1.9066756087      -16.4655319970  MEMB      104             0.0000000000
     12090       104  SAPE      C31            -8.6471340550        2.3847210360      -15.2646041647  MEMB      104             0.0000000000
     12091       104  SAPE      O32            -9.6368533572        1.9136074167      -14.7124958390  MEMB      104             0.0000000000
     12092       104  SAPE      C32            -7.7375350920        3.4602048422      -14.7920775828  MEMB      104             0.0000000000
     12093       104  SAPE      H2X            -7.7506067145        4.2908407163      -15.5297723645  MEMB      104             0.0000000000
     12094       104  SAPE      H2Y            -6.7242106908        3.0211786018      -14.6706246943  MEMB      104             0.0000000000
     12095       104  SAPE      C23           -12.3984640207        4.5001715239      -16.0911928781  MEMB      104             0.0000000000
     12096       104  SAPE      H3R           -11.8454609253        4.8681124452      -16.9817702388  MEMB      104             0.0000000000
     12097       104  SAPE      H3S           -11.7381088436        4.1614735830      -15.2644306366  MEMB      104             0.0000000000
     12098       104  SAPE      C24           -13.3044389155        5.6890615280      -15.6987228002  MEMB      104             0.0000000000
     12099       104  SAPE      H4R           -14.1946106979        5.4497043594      -16.3189026186  MEMB      104             0.0000000000
     12100       104  SAPE      H4S           -12.7881933331        6.6156515468      -16.0292410029  MEMB      104             0.0000000000
     12101       104  SAPE      C25           -13.6588348186        5.6181789521      -14.2398407607  MEMB      104             0.0000000000
     12102       104  SAPE      H5R           -14.4914720230        4.9151064974      -14.0901593096  MEMB      104             0.0000000000
     12103       104  SAPE      C26           -13.2491325705        6.4862032047      -13.1359153411  MEMB      104             0.0000000000
     12104       104  SAPE      H6R           -13.7578144651        6.3382850928      -12.1718806822  MEMB      104             0.0000000000
     12105       104  SAPE      C27           -12.3306922389        7.6719292677      -13.2796879569  MEMB      104             0.0000000000
     12106       104  SAPE      H7R           -12.7668878384        8.4952654346      -12.6745668736  MEMB      104             0.0000000000
     12107       104  SAPE      H7S           -12.4619748562        8.0985112500      -14.2970935164  MEMB      104             0.0000000000
     12108       104  SAPE      C28           -10.9188790734        7.2427700019      -12.8841212603  MEMB      104             0.0000000000
     12109       104  SAPE      H8R           -10.1922993736        7.2388946093      -13.7099946706  MEMB      104             0.0000000000
     12110       104  SAPE      C29           -10.4743334213        7.1068299715      -11.5567135112  MEMB      104             0.0000000000
     12111       104  SAPE      H9R            -9.3914819728        6.9286414215      -11.4813380799  MEMB      104             0.0000000000
     12112       104  SAPE      C210          -11.2018645553        7.3851308486      -10.2448479256  MEMB      104             0.0000000000
     12113       104  SAPE      H10R          -12.2430547489        7.6469731477      -10.5306491917  MEMB      104             0.0000000000
     12114       104  SAPE      H10S          -10.8591783041        8.2902663952       -9.6993049597  MEMB      104             0.0000000000
     12115       104  SAPE      C211          -11.0158598437        6.1269985129       -9.4863140581  MEMB      104             0.0000000000
     12116       104  SAPE      H11R          -11.3644657533        5.2122396098       -9.9880011453  MEMB      104             0.0000000000
     12117       104  SAPE      C212          -10.6106897999        6.0863490048       -8.1905619669  MEMB      104             0.0000000000
     12118       104  SAPE      H12R          -10.5192697877        5.1013930232       -7.7094140344  MEMB      104             0.0000000000
     12119       104  SAPE      C213          -10.1758456647        7.1451233433       -7.1601088725  MEMB      104             0.0000000000
     12120       104  SAPE      H13R          -10.8295181349        7.1587078649       -6.2618611235  MEMB      104             0.0000000000
     12121       104  SAPE      H13S          -10.3847262660        8.1370901677       -7.6147415190  MEMB      104             0.0000000000
     12122       104  SAPE      C214           -8.7130391730        7.1769020522       -6.7892744563  MEMB      104             0.0000000000
     12123       104  SAPE      H14R           -8.1701733145        7.9291381396       -7.3804065300  MEMB      104             0.0000000000
     12124       104  SAPE      C215           -8.1133835420        6.4982684939       -5.7720154160  MEMB      104             0.0000000000
     12125       104  SAPE      H15R           -7.0357577815        6.6419639230       -5.6044604444  MEMB      104             0.0000000000
     12126       104  SAPE      C216           -8.8705977096        5.5359653125       -4.8380345817  MEMB      104             0.0000000000
     12127       104  SAPE      H16R           -8.1793584007        4.7178762453       -4.5426722862  MEMB      104             0.0000000000
     12128       104  SAPE      H16S           -9.6886017493        5.0492722352       -5.4110273520  MEMB      104             0.0000000000
     12129       104  SAPE      C217           -9.4722457009        6.2093512012       -3.5358397623  MEMB      104             0.0000000000
     12130       104  SAPE      H17R          -10.3162912432        6.8898841927       -3.7782923175  MEMB      104             0.0000000000
     12131       104  SAPE      H17S           -8.6790345336        6.8021143079       -3.0320849947  MEMB      104             0.0000000000
     12132       104  SAPE      C218          -10.0438873183        5.2060834064       -2.5724098316  MEMB      104             0.0000000000
     12133       104  SAPE      H18R           -9.3954754553        4.3210406412       -2.3975331371  MEMB      104             0.0000000000
     12134       104  SAPE      H18S          -11.0564427221        4.9332864652       -2.9393357358  MEMB      104             0.0000000000
     12135       104  SAPE      C219          -10.2832608824        5.6248356962       -1.0608342187  MEMB      104             0.0000000000
     12136       104  SAPE      H19R          -11.1963707423        6.2576791362       -1.0530452856  MEMB      104             0.0000000000
     12137       104  SAPE      H19S           -9.3697479534        6.1414549996       -0.6962520343  MEMB      104             0.0000000000
     12138       104  SAPE      C220          -10.4282503219        4.4940177891       -0.0854159982  MEMB      104             0.0000000000
     12139       104  SAPE      H20R          -11.1804376494        3.7076731954       -0.3094642058  MEMB      104             0.0000000000
     12140       104  SAPE      H20S          -10.6805576062        4.9216166483        0.9084764498  MEMB      104             0.0000000000
     12141       104  SAPE      H20T           -9.4499367001        3.9683475568       -0.0555128545  MEMB      104             0.0000000000
     12142       104  SAPE      C33            -8.3095172368        3.9605329861      -13.4398402373  MEMB      104             0.0000000000
     12143       104  SAPE      H3X            -9.3636339443        3.6590100270      -13.2602773927  MEMB      104             0.0000000000
     12144       104  SAPE      H3Y            -8.3792863214        5.0693080912      -13.4314046578  MEMB      104             0.0000000000
     12145       104  SAPE      C34            -7.4259776094        3.6829271537      -12.2163864525  MEMB      104             0.0000000000
     12146       104  SAPE      H4X            -6.5223866630        4.3272149151      -12.2687136882  MEMB      104             0.0000000000
     12147       104  SAPE      H4Y            -7.2138111660        2.5953850544      -12.2973733605  MEMB      104             0.0000000000
     12148       104  SAPE      C35            -8.1504870563        3.9531606293      -10.9762045273  MEMB      104             0.0000000000
     12149       104  SAPE      H5X            -9.2367820182        3.7693825454      -11.1194170012  MEMB      104             0.0000000000
     12150       104  SAPE      H5Y            -8.0521371226        5.0054383807      -10.6336262712  MEMB      104             0.0000000000
     12151       104  SAPE      C36            -7.7215428727        2.9060013694       -9.9136560881  MEMB      104             0.0000000000
     12152       104  SAPE      H6X            -6.6896637211        3.1324742700       -9.5697715368  MEMB      104             0.0000000000
     12153       104  SAPE      H6Y            -7.6711903950        1.8849994059      -10.3487894934  MEMB      104             0.0000000000
     12154       104  SAPE      C37            -8.6308649932        2.7836147835       -8.6599687368  MEMB      104             0.0000000000
     12155       104  SAPE      H7X            -9.6524913145        2.6822627571       -9.0846196642  MEMB      104             0.0000000000
     12156       104  SAPE      H7Y            -8.6310402919        3.7543241623       -8.1195569719  MEMB      104             0.0000000000
     12157       104  SAPE      C38            -8.4141804185        1.6275248088       -7.6926076097  MEMB      104             0.0000000000
     12158       104  SAPE      H8X            -7.3871918044        1.2058405844       -7.7350079212  MEMB      104             0.0000000000
     12159       104  SAPE      H8Y            -9.0851883121        0.7814958407       -7.9539588783  MEMB      104             0.0000000000
     12160       104  SAPE      C39            -8.7481368478        2.0110964237       -6.1919392371  MEMB      104             0.0000000000
     12161       104  SAPE      H9X            -9.6708070262        2.6299449785       -6.1867341397  MEMB      104             0.0000000000
     12162       104  SAPE      H9Y            -7.9959036498        2.6522918933       -5.6846572019  MEMB      104             0.0000000000
     12163       104  SAPE      C310           -8.9936037641        0.8695493660       -5.2137910846  MEMB      104             0.0000000000
     12164       104  SAPE      H10X           -8.1723235688        0.1278137057       -5.3120141052  MEMB      104             0.0000000000
     12165       104  SAPE      H10Y           -9.8636127479        0.2976647284       -5.6015448823  MEMB      104             0.0000000000
     12166       104  SAPE      C311           -9.2635448824        1.2004053202       -3.7460364680  MEMB      104             0.0000000000
     12167       104  SAPE      H11X           -9.4550741414        0.2013532732       -3.2993456555  MEMB      104             0.0000000000
     12168       104  SAPE      H11Y          -10.0513595637        1.9837695911       -3.7491040530  MEMB      104             0.0000000000
     12169       104  SAPE      C312           -8.0355436858        1.7019430123       -2.9612300582  MEMB      104             0.0000000000
     12170       104  SAPE      H12X           -7.7274979743        2.7479567475       -3.1740298332  MEMB      104             0.0000000000
     12171       104  SAPE      H12Y           -7.2369151480        0.9625219175       -3.1843207179  MEMB      104             0.0000000000
     12172       104  SAPE      C313           -8.1558849712        1.6185482566       -1.3660204111  MEMB      104             0.0000000000
     12173       104  SAPE      H13X           -8.8870143243        2.4222587011       -1.1340281880  MEMB      104             0.0000000000
     12174       104  SAPE      H13Y           -7.1825012091        1.9435745059       -0.9403414990  MEMB      104             0.0000000000
     12175       104  SAPE      C314           -8.6239997577        0.2490868942       -0.8062101920  MEMB      104             0.0000000000
     12176       104  SAPE      H14X           -7.8186337727       -0.4607455306       -1.0922951252  MEMB      104             0.0000000000
     12177       104  SAPE      H14Y           -9.6074943538       -0.0273192562       -1.2428551671  MEMB      104             0.0000000000
     12178       104  SAPE      C315           -8.6586449680        0.4186858647        0.6954746333  MEMB      104             0.0000000000
     12179       104  SAPE      H15X           -8.1098339466        1.3358356151        0.9987298867  MEMB      104             0.0000000000
     12180       104  SAPE      H15Y           -8.0713622497       -0.4089689052        1.1475891648  MEMB      104             0.0000000000
     12181       104  SAPE      C316          -10.0591139376        0.2408999675        1.3470272455  MEMB      104             0.0000000000
     12182       104  SAPE      H16X          -10.0249442990        0.4771885679        2.4320719729  MEMB      104             0.0000000000
     12183       104  SAPE      H16Y          -10.2438554016       -0.8450174086        1.2021991235  MEMB      104             0.0000000000
     12184       104  SAPE      C317          -11.3750793677        1.0545736404        0.8641661309  MEMB      104             0.0000000000
     12185       104  SAPE      H17X          -11.4728626982        0.8867397197       -0.2297222171  MEMB      104             0.0000000000
     12186       104  SAPE      H17Y          -11.1378313294        2.1360755832        0.9557530658  MEMB      104             0.0000000000
     12187       104  SAPE      C318          -12.6987637154        0.7460529349        1.4953004726  MEMB      104             0.0000000000
     12188       104  SAPE      H18X          -13.2183983133       -0.0937837931        0.9864049252  MEMB      104             0.0000000000
     12189       104  SAPE      H18Y          -13.4480564852        1.5553636970        1.3615186543  MEMB      104             0.0000000000
     12190       104  SAPE      H18Z          -12.5185708354        0.5999426043        2.5818094969  MEMB      104             0.0000000000
     12191       105  SAPS      N               1.3707600128      -10.7206961645      -17.9803357583  MEMB      105             0.0000000000
     12192       105  SAPS      HN1             0.8949385611       -9.9578147249      -17.4576448564  MEMB      105             0.0000000000
     12193       105  SAPS      HN2             0.7693706107      -11.3662589582      -18.5309530542  MEMB      105             0.0000000000
     12194       105  SAPS      HN3             1.9407863638      -11.3221733685      -17.3519288831  MEMB      105             0.0000000000
     12195       105  SAPS      C12             2.1787005728      -10.1769335443      -19.1754553979  MEMB      105             0.0000000000
     12196       105  SAPS      H12A            1.5494678178      -10.5533823487      -19.9683944816  MEMB      105             0.0000000000
     12197       105  SAPS      C13             2.0358326491       -8.6284674652      -19.2544756364  MEMB      105             0.0000000000
     12198       105  SAPS      O13A            1.1666041629       -8.0322638272      -18.5335713444  MEMB      105             0.0000000000
     12199       105  SAPS      O13B            2.7205080654       -7.9924650919      -20.1506638681  MEMB      105             0.0000000000
     12200       105  SAPS      C11             3.6009195687      -10.7894006564      -19.2825872309  MEMB      105             0.0000000000
     12201       105  SAPS      H11A            3.6265433373      -11.8790539786      -19.0673661922  MEMB      105             0.0000000000
     12202       105  SAPS      H11B            4.2175308908      -10.2228682636      -18.5524142789  MEMB      105             0.0000000000
     12203       105  SAPS      P               5.2519519810      -11.6427105567      -21.1919208836  MEMB      105             0.0000000000
     12204       105  SAPS      O13             4.5689408266      -12.5965406894      -22.1478684001  MEMB      105             0.0000000000
     12205       105  SAPS      O14             6.2882411136      -10.8284406867      -21.8217623155  MEMB      105             0.0000000000
     12206       105  SAPS      O12             4.1175493603      -10.5894117696      -20.5782346729  MEMB      105             0.0000000000
     12207       105  SAPS      O11             5.7498126737      -12.4005927402      -19.8831245360  MEMB      105             0.0000000000
     12208       105  SAPS      C1              6.8693467842      -11.8377245486      -19.1459528218  MEMB      105             0.0000000000
     12209       105  SAPS      HA              7.7235586951      -11.7995518342      -19.8553086576  MEMB      105             0.0000000000
     12210       105  SAPS      HB              6.6358863383      -10.8063435808      -18.8052613311  MEMB      105             0.0000000000
     12211       105  SAPS      C2              6.9402269818      -12.7522458188      -17.9466067445  MEMB      105             0.0000000000
     12212       105  SAPS      HS              7.2312891806      -13.7904625419      -18.2143939768  MEMB      105             0.0000000000
     12213       105  SAPS      O21             5.6351833935      -12.7574893206      -17.3288837461  MEMB      105             0.0000000000
     12214       105  SAPS      C21             5.3414912848      -13.6596362120      -16.3683183173  MEMB      105             0.0000000000
     12215       105  SAPS      O22             6.0294564070      -14.5879645561      -16.0547873729  MEMB      105             0.0000000000
     12216       105  SAPS      C22             3.9044896245      -13.3071123923      -15.7268888350  MEMB      105             0.0000000000
     12217       105  SAPS      H2R             3.8023680230      -12.2806406947      -15.3142777781  MEMB      105             0.0000000000
     12218       105  SAPS      H2S             3.2511263284      -13.2658339013      -16.6245154715  MEMB      105             0.0000000000
     12219       105  SAPS      C3              7.9270287074      -12.3221523594      -16.8614709696  MEMB      105             0.0000000000
     12220       105  SAPS      HX              8.8979116555      -12.1587564426      -17.3762613846  MEMB      105             0.0000000000
     12221       105  SAPS      HY              8.0182035013      -13.1136807412      -16.0872029742  MEMB      105             0.0000000000
     12222       105  SAPS      O31             7.6587556119      -11.0247215478      -16.2990398723  MEMB      105             0.0000000000
     12223       105  SAPS      C31             7.3340210633      -11.0139264294      -15.0120234607  MEMB      105             0.0000000000
     12224       105  SAPS      O32             7.1711310516      -11.9361336615      -14.3070152303  MEMB      105             0.0000000000
     12225       105  SAPS      C32             7.1304200559       -9.5537051858      -14.6356813161  MEMB      105             0.0000000000
     12226       105  SAPS      H2X             8.0910840091       -9.0650346577      -14.9052128484  MEMB      105             0.0000000000
     12227       105  SAPS      H2Y             7.0627369391       -9.3429776565      -13.5469511198  MEMB      105             0.0000000000
     12228       105  SAPS      C23             3.4370812005      -14.3285367641      -14.6874492053  MEMB      105             0.0000000000
     12229       105  SAPS      H3R             3.7261959378      -15.2842174281      -15.1746945706  MEMB      105             0.0000000000
     12230       105  SAPS      H3S             2.3267734309      -14.3436484814      -14.6512617407  MEMB      105             0.0000000000
     12231       105  SAPS      C24             3.8285949512      -14.1517440735      -13.2123036205  MEMB      105             0.0000000000
     12232       105  SAPS      H4R             3.4547937211      -13.2233799217      -12.7298788363  MEMB      105             0.0000000000
     12233       105  SAPS      H4S             4.9317222483      -14.0289396332      -13.2607854162  MEMB      105             0.0000000000
     12234       105  SAPS      C25             3.4048168906      -15.2783893619      -12.3426249488  MEMB      105             0.0000000000
     12235       105  SAPS      H5R             3.3780150716      -16.2330353995      -12.8884565534  MEMB      105             0.0000000000
     12236       105  SAPS      C26             3.0936586097      -15.2353666865      -11.0310741709  MEMB      105             0.0000000000
     12237       105  SAPS      H6R             2.8352902512      -16.1973986430      -10.5644477420  MEMB      105             0.0000000000
     12238       105  SAPS      C27             3.0194076880      -14.0331686828      -10.0836706961  MEMB      105             0.0000000000
     12239       105  SAPS      H7R             3.1172827427      -13.0806125804      -10.6470337871  MEMB      105             0.0000000000
     12240       105  SAPS      H7S             3.9867033559      -13.9899774364       -9.5388823673  MEMB      105             0.0000000000
     12241       105  SAPS      C28             1.9204569363      -13.9085394917       -9.0700128847  MEMB      105             0.0000000000
     12242       105  SAPS      H8R             1.1951386691      -13.2415496999       -9.5589278805  MEMB      105             0.0000000000
     12243       105  SAPS      C29             1.7695724073      -14.4745143876       -7.8275491005  MEMB      105             0.0000000000
     12244       105  SAPS      H9R             0.9279183997      -14.2042548348       -7.1728903237  MEMB      105             0.0000000000
     12245       105  SAPS      C210            2.7982151322      -15.3569554464       -7.2019806128  MEMB      105             0.0000000000
     12246       105  SAPS      H10R            3.0179968082      -14.7901038272       -6.2720901961  MEMB      105             0.0000000000
     12247       105  SAPS      H10S            3.7798961809      -15.3910761023       -7.7210757382  MEMB      105             0.0000000000
     12248       105  SAPS      C211            2.4039608470      -16.8091107684       -6.9362302432  MEMB      105             0.0000000000
     12249       105  SAPS      H11R            2.8909666173      -17.5758710495       -7.5566360672  MEMB      105             0.0000000000
     12250       105  SAPS      C212            1.5504557567      -17.2384366445       -5.9620835063  MEMB      105             0.0000000000
     12251       105  SAPS      H12R            1.2547924929      -18.2946231383       -5.8780972725  MEMB      105             0.0000000000
     12252       105  SAPS      C213            0.8672961131      -16.3445467150       -4.9667577431  MEMB      105             0.0000000000
     12253       105  SAPS      H13R           -0.2350129596      -16.4831760255       -4.9709537805  MEMB      105             0.0000000000
     12254       105  SAPS      H13S            0.9070745192      -15.2547090479       -5.1788723050  MEMB      105             0.0000000000
     12255       105  SAPS      C214            1.4426968459      -16.4765136181       -3.5883439707  MEMB      105             0.0000000000
     12256       105  SAPS      H14R            2.1616316695      -17.2898119687       -3.4103601653  MEMB      105             0.0000000000
     12257       105  SAPS      C215            1.2190637227      -15.6340288638       -2.5103200359  MEMB      105             0.0000000000
     12258       105  SAPS      H15R            1.6301674981      -16.0600952921       -1.5832489321  MEMB      105             0.0000000000
     12259       105  SAPS      C216            0.4221386694      -14.4207110334       -2.3721394725  MEMB      105             0.0000000000
     12260       105  SAPS      H16R           -0.3122597973      -14.4649054745       -1.5396571353  MEMB      105             0.0000000000
     12261       105  SAPS      H16S           -0.2342460883      -14.2048781132       -3.2421375307  MEMB      105             0.0000000000
     12262       105  SAPS      C217            1.2788578890      -13.2567229624       -1.9248017801  MEMB      105             0.0000000000
     12263       105  SAPS      H17R            2.0765194749      -13.7292662260       -1.3126264202  MEMB      105             0.0000000000
     12264       105  SAPS      H17S            0.6902554662      -12.5771319942       -1.2720964891  MEMB      105             0.0000000000
     12265       105  SAPS      C218            1.9173482490      -12.2854507051       -3.0407238304  MEMB      105             0.0000000000
     12266       105  SAPS      H18R            1.0515003375      -12.0007942746       -3.6760184119  MEMB      105             0.0000000000
     12267       105  SAPS      H18S            2.6051591549      -12.8103977236       -3.7376212553  MEMB      105             0.0000000000
     12268       105  SAPS      C219            2.4912024373      -10.9436518561       -2.5632747570  MEMB      105             0.0000000000
     12269       105  SAPS      H19R            1.7941108785      -10.5248799848       -1.8062980806  MEMB      105             0.0000000000
     12270       105  SAPS      H19S            2.5978005391      -10.1426400285       -3.3257314488  MEMB      105             0.0000000000
     12271       105  SAPS      C220            3.8320441902      -11.2904310816       -1.9470681527  MEMB      105             0.0000000000
     12272       105  SAPS      H20R            4.3883102207      -11.7539531260       -2.7897037901  MEMB      105             0.0000000000
     12273       105  SAPS      H20S            3.7699669330      -12.0418043541       -1.1310367272  MEMB      105             0.0000000000
     12274       105  SAPS      H20T            4.4869288123      -10.4106754439       -1.7696491257  MEMB      105             0.0000000000
     12275       105  SAPS      C33             6.0635155615       -8.7865897814      -15.4912778446  MEMB      105             0.0000000000
     12276       105  SAPS      H3X             6.3632777010       -8.6891640641      -16.5566285221  MEMB      105             0.0000000000
     12277       105  SAPS      H3Y             5.9815287082       -7.7852932889      -15.0169317196  MEMB      105             0.0000000000
     12278       105  SAPS      C34             4.7077325706       -9.3533365787      -15.2972248930  MEMB      105             0.0000000000
     12279       105  SAPS      H4X             4.8168672783      -10.3181519699      -15.8371712190  MEMB      105             0.0000000000
     12280       105  SAPS      H4Y             3.9100285464       -8.7984651778      -15.8358409465  MEMB      105             0.0000000000
     12281       105  SAPS      C35             4.2358116588       -9.6565291680      -13.8430091832  MEMB      105             0.0000000000
     12282       105  SAPS      H5X             4.8822736285      -10.4850981522      -13.4826183562  MEMB      105             0.0000000000
     12283       105  SAPS      H5Y             3.2876937693      -10.2339540832      -13.8874414261  MEMB      105             0.0000000000
     12284       105  SAPS      C36             4.2116496023       -8.4166803433      -12.9610411245  MEMB      105             0.0000000000
     12285       105  SAPS      H6X             3.6926755487       -7.5430684822      -13.4102504587  MEMB      105             0.0000000000
     12286       105  SAPS      H6Y             5.2765856608       -8.1035293811      -12.9144754301  MEMB      105             0.0000000000
     12287       105  SAPS      C37             3.7336027735       -8.7656857366      -11.5432591776  MEMB      105             0.0000000000
     12288       105  SAPS      H7X             4.3984986411       -9.5784104856      -11.1803356532  MEMB      105             0.0000000000
     12289       105  SAPS      H7Y             2.6563322416       -9.0373024406      -11.5490437156  MEMB      105             0.0000000000
     12290       105  SAPS      C38             3.8173873820       -7.5588095234      -10.6041131709  MEMB      105             0.0000000000
     12291       105  SAPS      H8X             3.2029640673       -6.7597270205      -11.0713091770  MEMB      105             0.0000000000
     12292       105  SAPS      H8Y             4.8254893330       -7.0918636609      -10.6004829040  MEMB      105             0.0000000000
     12293       105  SAPS      C39             3.1926242651       -7.7222912142       -9.1955074522  MEMB      105             0.0000000000
     12294       105  SAPS      H9X             2.0882088857       -7.8293396907       -9.2514387682  MEMB      105             0.0000000000
     12295       105  SAPS      H9Y             3.4502377520       -6.9297577381       -8.4607643477  MEMB      105             0.0000000000
     12296       105  SAPS      C310            3.7336209985       -8.9686232715       -8.4256076034  MEMB      105             0.0000000000
     12297       105  SAPS      H10X            3.4766103861       -9.9096326817       -8.9573672281  MEMB      105             0.0000000000
     12298       105  SAPS      H10Y            3.1748238998       -8.8975829337       -7.4679959207  MEMB      105             0.0000000000
     12299       105  SAPS      C311            5.2644038296       -8.9111080091       -8.2340558182  MEMB      105             0.0000000000
     12300       105  SAPS      H11X            5.5981281893       -8.0796786708       -7.5770368166  MEMB      105             0.0000000000
     12301       105  SAPS      H11Y            5.7606909333       -8.7720267453       -9.2182691777  MEMB      105             0.0000000000
     12302       105  SAPS      C312            5.7071475290      -10.2570318971       -7.6578097807  MEMB      105             0.0000000000
     12303       105  SAPS      H12X            6.8126439268      -10.3338002184       -7.5784065441  MEMB      105             0.0000000000
     12304       105  SAPS      H12Y            5.5696023929      -11.1182878779       -8.3460255835  MEMB      105             0.0000000000
     12305       105  SAPS      C313            5.2212597763      -10.5760941485       -6.2449691624  MEMB      105             0.0000000000
     12306       105  SAPS      H13X            4.1126743413      -10.5813041848       -6.1719498783  MEMB      105             0.0000000000
     12307       105  SAPS      H13Y            5.5894955469       -9.8690479864       -5.4711414482  MEMB      105             0.0000000000
     12308       105  SAPS      C314            5.7760108674      -11.8332037791       -5.5352211919  MEMB      105             0.0000000000
     12309       105  SAPS      H14X            5.9002562182      -11.6531592523       -4.4459704061  MEMB      105             0.0000000000
     12310       105  SAPS      H14Y            6.8353743937      -11.9905258489       -5.8307215560  MEMB      105             0.0000000000
     12311       105  SAPS      C315            5.0733360313      -13.1096585211       -5.7289709988  MEMB      105             0.0000000000
     12312       105  SAPS      H15X            5.3666150842      -13.3359335549       -6.7764003906  MEMB      105             0.0000000000
     12313       105  SAPS      H15Y            3.9772838856      -12.9475174266       -5.6471135939  MEMB      105             0.0000000000
     12314       105  SAPS      C316            5.5876757536      -14.2539030957       -4.8956466852  MEMB      105             0.0000000000
     12315       105  SAPS      H16X            6.6741626417      -14.0834654766       -4.7381094517  MEMB      105             0.0000000000
     12316       105  SAPS      H16Y            5.5010465951      -15.2539651269       -5.3717686528  MEMB      105             0.0000000000
     12317       105  SAPS      C317            4.9821031694      -14.4807469903       -3.5736157002  MEMB      105             0.0000000000
     12318       105  SAPS      H17X            3.8862090532      -14.6554332714       -3.5204938016  MEMB      105             0.0000000000
     12319       105  SAPS      H17Y            5.1578734152      -13.5287164288       -3.0285803029  MEMB      105             0.0000000000
     12320       105  SAPS      C318            5.6429222011      -15.7244741043       -2.8124968301  MEMB      105             0.0000000000
     12321       105  SAPS      H18X            6.2590218903      -15.3482297448       -1.9679952374  MEMB      105             0.0000000000
     12322       105  SAPS      H18Y            6.0590489817      -16.5004153342       -3.4900478962  MEMB      105             0.0000000000
     12323       105  SAPS      H18Z            4.7814513392      -16.0600722171       -2.1964090105  MEMB      105             0.0000000000
     12324       106  CHL1      C3              3.5528537262       13.9455130122      -17.3167150000  MEMB      106             0.0000000000
     12325       106  CHL1      H3              2.5312185068       13.5272903223      -17.1915150000  MEMB      106             0.0000000000
     12326       106  CHL1      O3              3.7966571738       14.0588895878      -18.6832850000  MEMB      106             0.0000000000
     12327       106  CHL1      H3'             4.2642949725       13.2412746749      -18.8688050000  MEMB      106             0.0000000000
     12328       106  CHL1      C4              3.3457022430       15.3441184589      -16.6919450000  MEMB      106             0.0000000000
     12329       106  CHL1      H4A             4.0220220152       16.1414321800      -17.0677250000  MEMB      106             0.0000000000
     12330       106  CHL1      H4B             2.3885419340       15.6365137505      -17.1742950000  MEMB      106             0.0000000000
     12331       106  CHL1      C5              3.3514705551       15.3657756488      -15.1753550000  MEMB      106             0.0000000000
     12332       106  CHL1      C6              2.3123167126       15.8494942701      -14.4668950000  MEMB      106             0.0000000000
     12333       106  CHL1      H6              1.4358556890       16.2625498941      -14.9876750000  MEMB      106             0.0000000000
     12334       106  CHL1      C7              2.4320392532       15.9132774353      -12.9819050000  MEMB      106             0.0000000000
     12335       106  CHL1      H7A             1.9335470477       16.8500214528      -12.6527550000  MEMB      106             0.0000000000
     12336       106  CHL1      H7B             1.8355497843       15.0666855620      -12.5796550000  MEMB      106             0.0000000000
     12337       106  CHL1      C8              3.8745131360       15.8371803831      -12.3452850000  MEMB      106             0.0000000000
     12338       106  CHL1      H8              4.4194648183       16.7341473161      -12.7097150000  MEMB      106             0.0000000000
     12339       106  CHL1      C14             3.8456479457       15.7138144487      -10.8067150000  MEMB      106             0.0000000000
     12340       106  CHL1      H14             3.4435786572       14.6832385412      -10.7039450000  MEMB      106             0.0000000000
     12341       106  CHL1      C15             3.1223836221       16.7709300301       -9.9894150000  MEMB      106             0.0000000000
     12342       106  CHL1      H15A            3.2733583165       17.7997258995      -10.3807050000  MEMB      106             0.0000000000
     12343       106  CHL1      H15B            2.0260564364       16.5985345221       -9.9376750000  MEMB      106             0.0000000000
     12344       106  CHL1      C16             3.6394037139       16.5865465644       -8.5663250000  MEMB      106             0.0000000000
     12345       106  CHL1      H16A            4.0353036483       17.5815461417       -8.2704150000  MEMB      106             0.0000000000
     12346       106  CHL1      H16B            2.9632666470       16.2254035205       -7.7621250000  MEMB      106             0.0000000000
     12347       106  CHL1      C17             4.8527745492       15.6125182024       -8.7066450000  MEMB      106             0.0000000000
     12348       106  CHL1      H17             4.5070416873       14.5578565991       -8.6568350000  MEMB      106             0.0000000000
     12349       106  CHL1      C13             5.2417813599       15.6285907177      -10.2108450000  MEMB      106             0.0000000000
     12350       106  CHL1      C18             5.9900585175       16.9313552234      -10.4789750000  MEMB      106             0.0000000000
     12351       106  CHL1      H18A            6.1351670021       17.0157118266      -11.5772250000  MEMB      106             0.0000000000
     12352       106  CHL1      H18B            5.4649101816       17.7981185128      -10.0237250000  MEMB      106             0.0000000000
     12353       106  CHL1      H18C            6.9803499151       16.9846869059       -9.9781650000  MEMB      106             0.0000000000
     12354       106  CHL1      C12             5.8438672164       14.3615448545      -10.7927050000  MEMB      106             0.0000000000
     12355       106  CHL1      H12A            6.8135394659       14.0655216510      -10.3383750000  MEMB      106             0.0000000000
     12356       106  CHL1      H12B            5.1389890337       13.5201347120      -10.6209550000  MEMB      106             0.0000000000
     12357       106  CHL1      C11             5.9662110663       14.4259121754      -12.3481850000  MEMB      106             0.0000000000
     12358       106  CHL1      H11A            6.7328930588       15.2061843372      -12.5423150000  MEMB      106             0.0000000000
     12359       106  CHL1      H11B            6.4437292794       13.4694648830      -12.6506550000  MEMB      106             0.0000000000
     12360       106  CHL1      C9              4.6425735408       14.6437345629      -13.0556450000  MEMB      106             0.0000000000
     12361       106  CHL1      H9              4.0835931443       13.7025188053      -12.8659950000  MEMB      106             0.0000000000
     12362       106  CHL1      C10             4.6770000675       14.6959479181      -14.6430050000  MEMB      106             0.0000000000
     12363       106  CHL1      C19             5.9124220155       15.5384548970      -15.1381050000  MEMB      106             0.0000000000
     12364       106  CHL1      H19A            5.7871716067       16.5832068161      -14.7815650000  MEMB      106             0.0000000000
     12365       106  CHL1      H19B            6.8132096294       15.1148749960      -14.6446650000  MEMB      106             0.0000000000
     12366       106  CHL1      H19C            5.9550790752       15.4832796302      -16.2469150000  MEMB      106             0.0000000000
     12367       106  CHL1      C1              4.7229303987       13.2162918093      -15.1543050000  MEMB      106             0.0000000000
     12368       106  CHL1      H1A             5.7332739642       12.8490677277      -14.8738250000  MEMB      106             0.0000000000
     12369       106  CHL1      H1B             3.8687658828       12.6860953643      -14.6814150000  MEMB      106             0.0000000000
     12370       106  CHL1      C2              4.7168909894       13.1089450109      -16.6824950000  MEMB      106             0.0000000000
     12371       106  CHL1      H2A             4.5466160297       12.1024722385      -17.1210550000  MEMB      106             0.0000000000
     12372       106  CHL1      H2B             5.6546721274       13.4088444097      -17.1972150000  MEMB      106             0.0000000000
     12373       106  CHL1      C20             5.8914967307       15.9890026829       -7.6620850000  MEMB      106             0.0000000000
     12374       106  CHL1      H20             6.1309348515       17.0685613961       -7.7695750000  MEMB      106             0.0000000000
     12375       106  CHL1      C21             7.2106000564       15.1863689529       -7.7114150000  MEMB      106             0.0000000000
     12376       106  CHL1      H21A            7.0743500815       14.1238001619       -7.4169450000  MEMB      106             0.0000000000
     12377       106  CHL1      H21B            7.9345854342       15.6498355446       -7.0075950000  MEMB      106             0.0000000000
     12378       106  CHL1      H21C            7.7209188097       15.1852408876       -8.6982750000  MEMB      106             0.0000000000
     12379       106  CHL1      C22             5.1564496513       15.9911319176       -6.2930350000  MEMB      106             0.0000000000
     12380       106  CHL1      H22A            4.5626371030       16.9278285090       -6.3587150000  MEMB      106             0.0000000000
     12381       106  CHL1      H22B            4.5532528295       15.0695048159       -6.1478250000  MEMB      106             0.0000000000
     12382       106  CHL1      C23             6.2314948444       16.3240852859       -5.2061450000  MEMB      106             0.0000000000
     12383       106  CHL1      H23A            6.9006508556       15.4471508195       -5.0736950000  MEMB      106             0.0000000000
     12384       106  CHL1      H23B            6.7960379731       17.1992584737       -5.5930150000  MEMB      106             0.0000000000
     12385       106  CHL1      C24             5.6140952839       16.4908825642       -3.7944350000  MEMB      106             0.0000000000
     12386       106  CHL1      H24A            5.0957152445       17.4734610476       -3.7823850000  MEMB      106             0.0000000000
     12387       106  CHL1      H24B            4.8540510165       15.7454556863       -3.4766650000  MEMB      106             0.0000000000
     12388       106  CHL1      C25             6.5615436425       16.3680193528       -2.5733150000  MEMB      106             0.0000000000
     12389       106  CHL1      H25             5.9015623126       16.5789117025       -1.7048150000  MEMB      106             0.0000000000
     12390       106  CHL1      C26             7.1031037620       14.9011679713       -2.4276550000  MEMB      106             0.0000000000
     12391       106  CHL1      H26A            8.0374451010       14.7886240156       -3.0181350000  MEMB      106             0.0000000000
     12392       106  CHL1      H26B            7.5267133522       14.6718227087       -1.4265250000  MEMB      106             0.0000000000
     12393       106  CHL1      H26C            6.2649137375       14.1846354382       -2.5630850000  MEMB      106             0.0000000000
     12394       106  CHL1      C27             7.7195807187       17.3519192595       -2.5324350000  MEMB      106             0.0000000000
     12395       106  CHL1      H27A            8.3526218742       17.0512967660       -1.6703450000  MEMB      106             0.0000000000
     12396       106  CHL1      H27B            8.2476716609       17.2844913955       -3.5075650000  MEMB      106             0.0000000000
     12397       106  CHL1      H27C            7.3382602380       18.3834722079       -2.3748750000  MEMB      106             0.0000000000
     12398       107  CHL1      C3            -10.5919193237      -11.0070230867      -17.2883000000  MEMB      107             0.0000000000
     12399       107  CHL1      H3             -9.5401332139      -10.8279524194      -16.9784800000  MEMB      107             0.0000000000
     12400       107  CHL1      O3            -10.5832710897      -11.0946357573      -18.7117000000  MEMB      107             0.0000000000
     12401       107  CHL1      H3'           -10.4247365917      -12.0267913578      -18.8777000000  MEMB      107             0.0000000000
     12402       107  CHL1      C4            -11.1588225380      -12.3068656012      -16.7882900000  MEMB      107             0.0000000000
     12403       107  CHL1      H4A           -12.1576825747      -12.3538978204      -17.2724400000  MEMB      107             0.0000000000
     12404       107  CHL1      H4B           -10.5384274069      -13.1566491135      -17.1450900000  MEMB      107             0.0000000000
     12405       107  CHL1      C5            -11.2109754802      -12.2047422840      -15.2577100000  MEMB      107             0.0000000000
     12406       107  CHL1      C6            -10.5271690061      -13.0823788711      -14.5074100000  MEMB      107             0.0000000000
     12407       107  CHL1      H6            -10.0245787100      -13.9431326228      -14.9727000000  MEMB      107             0.0000000000
     12408       107  CHL1      C7            -10.4507323249      -13.0135179419      -12.9787300000  MEMB      107             0.0000000000
     12409       107  CHL1      H7A           -10.5459044926      -14.0423494724      -12.5703500000  MEMB      107             0.0000000000
     12410       107  CHL1      H7B            -9.4410381907      -12.5949698291      -12.7796200000  MEMB      107             0.0000000000
     12411       107  CHL1      C8            -11.5858659377      -12.1380853272      -12.3694600000  MEMB      107             0.0000000000
     12412       107  CHL1      H8            -12.5629109766      -12.6615819220      -12.4446400000  MEMB      107             0.0000000000
     12413       107  CHL1      C14           -11.1420454511      -11.7000296834      -11.0023400000  MEMB      107             0.0000000000
     12414       107  CHL1      H14           -10.2260688249      -11.0906801243      -11.1573000000  MEMB      107             0.0000000000
     12415       107  CHL1      C15           -10.5295884460      -12.8285839808      -10.1090900000  MEMB      107             0.0000000000
     12416       107  CHL1      H15A          -11.2298858818      -13.6747439071       -9.9420000000  MEMB      107             0.0000000000
     12417       107  CHL1      H15B           -9.5533300218      -13.2107268020      -10.4768100000  MEMB      107             0.0000000000
     12418       107  CHL1      C16           -10.5634983800      -12.0764983783       -8.7089600000  MEMB      107             0.0000000000
     12419       107  CHL1      H16A          -11.0279700017      -12.7838045185       -7.9890200000  MEMB      107             0.0000000000
     12420       107  CHL1      H16B           -9.5380786616      -11.8547705673       -8.3433400000  MEMB      107             0.0000000000
     12421       107  CHL1      C17           -11.3906149230      -10.8379757119       -8.8698100000  MEMB      107             0.0000000000
     12422       107  CHL1      H17           -10.7167184035       -9.9660678261       -9.0110900000  MEMB      107             0.0000000000
     12423       107  CHL1      C13           -12.0670238634      -10.9027643521      -10.2363900000  MEMB      107             0.0000000000
     12424       107  CHL1      C18           -13.3856194545      -11.6445606811      -10.0655500000  MEMB      107             0.0000000000
     12425       107  CHL1      H18A          -13.2602645096      -12.4190727607       -9.2789500000  MEMB      107             0.0000000000
     12426       107  CHL1      H18B          -14.0773181890      -10.9344403975       -9.5639600000  MEMB      107             0.0000000000
     12427       107  CHL1      H18C          -13.7875465409      -12.1734749052      -10.9560700000  MEMB      107             0.0000000000
     12428       107  CHL1      C12           -12.2653979153       -9.5572187914      -11.0639800000  MEMB      107             0.0000000000
     12429       107  CHL1      H12A          -13.0062932853       -8.8546747569      -10.6260000000  MEMB      107             0.0000000000
     12430       107  CHL1      H12B          -11.3584169489       -8.9172991309      -11.0169700000  MEMB      107             0.0000000000
     12431       107  CHL1      C11           -12.7093120556       -9.8634654835      -12.4506300000  MEMB      107             0.0000000000
     12432       107  CHL1      H11A          -13.7148931937      -10.3060916416      -12.6155600000  MEMB      107             0.0000000000
     12433       107  CHL1      H11B          -12.7975946860       -8.9100103361      -13.0140700000  MEMB      107             0.0000000000
     12434       107  CHL1      C9            -11.7227332816      -10.8198519484      -13.1767300000  MEMB      107             0.0000000000
     12435       107  CHL1      H9            -10.6882212778      -10.4210656308      -13.1055200000  MEMB      107             0.0000000000
     12436       107  CHL1      C10           -11.9726077925      -10.9677774773      -14.6970200000  MEMB      107             0.0000000000
     12437       107  CHL1      C19           -13.4696345983      -11.2493600515      -14.9843900000  MEMB      107             0.0000000000
     12438       107  CHL1      H19A          -13.9896609791      -10.3382127342      -14.6187400000  MEMB      107             0.0000000000
     12439       107  CHL1      H19B          -13.7970890979      -11.3017028291      -16.0447500000  MEMB      107             0.0000000000
     12440       107  CHL1      H19C          -13.7611770645      -12.1614565727      -14.4210100000  MEMB      107             0.0000000000
     12441       107  CHL1      C1            -11.5590413659       -9.6646874237      -15.3462000000  MEMB      107             0.0000000000
     12442       107  CHL1      H1A           -12.2574716686       -8.8479868525      -15.0642100000  MEMB      107             0.0000000000
     12443       107  CHL1      H1B           -10.6050978663       -9.3965711587      -14.8437900000  MEMB      107             0.0000000000
     12444       107  CHL1      C2            -11.4988520418       -9.7894331958      -16.8767700000  MEMB      107             0.0000000000
     12445       107  CHL1      H2A           -11.1693817834       -8.8166581084      -17.3004200000  MEMB      107             0.0000000000
     12446       107  CHL1      H2B           -12.4530945270      -10.0634727375      -17.3754100000  MEMB      107             0.0000000000
     12447       107  CHL1      C20           -12.2789048487      -10.4359156556       -7.5407900000  MEMB      107             0.0000000000
     12448       107  CHL1      H20           -13.0985885773      -11.1843144962       -7.4923700000  MEMB      107             0.0000000000
     12449       107  CHL1      C21           -12.9602106552       -9.0439619675       -7.7752900000  MEMB      107             0.0000000000
     12450       107  CHL1      H21A          -13.5533968810       -8.6853053907       -6.9070600000  MEMB      107             0.0000000000
     12451       107  CHL1      H21B          -13.6177573526       -9.1468321031       -8.6648800000  MEMB      107             0.0000000000
     12452       107  CHL1      H21C          -12.1927129423       -8.2924044934       -8.0588800000  MEMB      107             0.0000000000
     12453       107  CHL1      C22           -11.4732863030      -10.4983885339       -6.3143400000  MEMB      107             0.0000000000
     12454       107  CHL1      H22A          -10.9724458501      -11.4674763290       -6.1037300000  MEMB      107             0.0000000000
     12455       107  CHL1      H22B          -10.7369373329       -9.6664580095       -6.3136400000  MEMB      107             0.0000000000
     12456       107  CHL1      C23           -12.2685481990      -10.3515563674       -5.0143800000  MEMB      107             0.0000000000
     12457       107  CHL1      H23A          -11.5758065649      -10.3872509836       -4.1465400000  MEMB      107             0.0000000000
     12458       107  CHL1      H23B          -12.7799808256       -9.3658549799       -4.9807400000  MEMB      107             0.0000000000
     12459       107  CHL1      C24           -13.4251903595      -11.3149614740       -4.7825800000  MEMB      107             0.0000000000
     12460       107  CHL1      H24A          -14.2200300268      -11.2354359953       -5.5547400000  MEMB      107             0.0000000000
     12461       107  CHL1      H24B          -13.0603862539      -12.3619595248       -4.8535400000  MEMB      107             0.0000000000
     12462       107  CHL1      C25           -14.0190446584      -11.2156589028       -3.3220200000  MEMB      107             0.0000000000
     12463       107  CHL1      H25           -14.4789616672      -10.2067056762       -3.2525000000  MEMB      107             0.0000000000
     12464       107  CHL1      C26           -15.1361584728      -12.2629054237       -3.3112100000  MEMB      107             0.0000000000
     12465       107  CHL1      H26A          -15.8037316347      -12.1996906529       -4.1970200000  MEMB      107             0.0000000000
     12466       107  CHL1      H26B          -14.6751251803      -13.2627045031       -3.1623200000  MEMB      107             0.0000000000
     12467       107  CHL1      H26C          -15.6599950839      -11.9543922117       -2.3812900000  MEMB      107             0.0000000000
     12468       107  CHL1      C27           -13.1202223572      -11.5648997536       -2.1618100000  MEMB      107             0.0000000000
     12469       107  CHL1      H27A          -13.7314256942      -11.5324410772       -1.2346100000  MEMB      107             0.0000000000
     12470       107  CHL1      H27B          -12.7814316190      -12.6182010352       -2.2623000000  MEMB      107             0.0000000000
     12471       107  CHL1      H27C          -12.1870114055      -10.9691148001       -2.0697500000  MEMB      107             0.0000000000
     12472       108  SAPS      N              12.4073036471        9.0166327268      -21.8876303511  MEMB      108             0.0000000000
     12473       108  SAPS      HN1            11.7565090151        8.2098478443      -21.8029865745  MEMB      108             0.0000000000
     12474       108  SAPS      HN2            12.6229101973        9.2616056495      -22.8751028651  MEMB      108             0.0000000000
     12475       108  SAPS      HN3            13.3361856563        8.8369398748      -21.4557870402  MEMB      108             0.0000000000
     12476       108  SAPS      C12            11.5788061343       10.0997571130      -21.3252394756  MEMB      108             0.0000000000
     12477       108  SAPS      H12A           12.0670741537       11.0307005678      -21.5729056213  MEMB      108             0.0000000000
     12478       108  SAPS      C13            10.1806383477       10.1125433129      -22.0963143962  MEMB      108             0.0000000000
     12479       108  SAPS      O13A            9.9063239152        9.2442272315      -22.9693023397  MEMB      108             0.0000000000
     12480       108  SAPS      O13B            9.3702859108       10.9763915063      -21.6223693669  MEMB      108             0.0000000000
     12481       108  SAPS      C11            11.3041247611        9.9118768243      -19.8176845232  MEMB      108             0.0000000000
     12482       108  SAPS      H11A           12.2070384617        9.6757157788      -19.2149444075  MEMB      108             0.0000000000
     12483       108  SAPS      H11B           10.6076396246        9.0769823214      -19.5892536530  MEMB      108             0.0000000000
     12484       108  SAPS      P               9.8343431045       11.1866840734      -18.0446830356  MEMB      108             0.0000000000
     12485       108  SAPS      O13             9.7318167443       12.5603325983      -17.4701622408  MEMB      108             0.0000000000
     12486       108  SAPS      O14             8.6281622514       10.6100915565      -18.6160448848  MEMB      108             0.0000000000
     12487       108  SAPS      O12            10.9943259138       11.1676833507      -19.1877974244  MEMB      108             0.0000000000
     12488       108  SAPS      O11            10.4719047733       10.1364765042      -16.9627719432  MEMB      108             0.0000000000
     12489       108  SAPS      C1             11.4940736520       10.6627241609      -16.1214483819  MEMB      108             0.0000000000
     12490       108  SAPS      HA             12.2921694041       11.2467083853      -16.6277353713  MEMB      108             0.0000000000
     12491       108  SAPS      HB             10.9783021683       11.2657836573      -15.3438750278  MEMB      108             0.0000000000
     12492       108  SAPS      C2             12.3022804805        9.6033514373      -15.3066859009  MEMB      108             0.0000000000
     12493       108  SAPS      HS             12.8078747079        8.9110659868      -16.0133935394  MEMB      108             0.0000000000
     12494       108  SAPS      O21            11.3957291488        8.8034864397      -14.4884709023  MEMB      108             0.0000000000
     12495       108  SAPS      C21            11.7504214054        7.6413616856      -14.0690934757  MEMB      108             0.0000000000
     12496       108  SAPS      O22            12.7306854088        7.0108179579      -14.3671790464  MEMB      108             0.0000000000
     12497       108  SAPS      C22            10.7732612533        7.2332284183      -13.0058514856  MEMB      108             0.0000000000
     12498       108  SAPS      H2R            10.6363480660        8.1797325149      -12.4404260107  MEMB      108             0.0000000000
     12499       108  SAPS      H2S             9.7954524970        7.0414742007      -13.4972181944  MEMB      108             0.0000000000
     12500       108  SAPS      C3             13.3670882777       10.3065090136      -14.4518467064  MEMB      108             0.0000000000
     12501       108  SAPS      HX             14.2790198754       10.5825606846      -15.0232460359  MEMB      108             0.0000000000
     12502       108  SAPS      HY             13.6520071052        9.5914430393      -13.6507083852  MEMB      108             0.0000000000
     12503       108  SAPS      O31            12.8260128140       11.5404599986      -13.9657517017  MEMB      108             0.0000000000
     12504       108  SAPS      C31            12.3174486572       11.5293190631      -12.8029168627  MEMB      108             0.0000000000
     12505       108  SAPS      O32            12.2036432078       10.7068321697      -11.9308215090  MEMB      108             0.0000000000
     12506       108  SAPS      C32            11.6995968263       12.9881467419      -12.4858350994  MEMB      108             0.0000000000
     12507       108  SAPS      H2X            10.9500202804       13.1902530992      -13.2805740304  MEMB      108             0.0000000000
     12508       108  SAPS      H2Y            12.4858157999       13.7591991390      -12.6330053287  MEMB      108             0.0000000000
     12509       108  SAPS      C23            11.2948181342        6.1709747916      -12.0682045837  MEMB      108             0.0000000000
     12510       108  SAPS      H3R            12.4024701726        6.1429710175      -11.9866964046  MEMB      108             0.0000000000
     12511       108  SAPS      H3S            11.0561050810        5.2021591972      -12.5568082439  MEMB      108             0.0000000000
     12512       108  SAPS      C24            10.5540455733        6.1431263253      -10.6123612522  MEMB      108             0.0000000000
     12513       108  SAPS      H4R             9.5044082533        5.7795566139      -10.6323707334  MEMB      108             0.0000000000
     12514       108  SAPS      H4S            10.5476546480        7.2188008335      -10.3345041270  MEMB      108             0.0000000000
     12515       108  SAPS      C25            11.4766280156        5.2279786682       -9.8256240660  MEMB      108             0.0000000000
     12516       108  SAPS      H5R            11.6194658279        4.2677969354      -10.3429719150  MEMB      108             0.0000000000
     12517       108  SAPS      C26            12.3374515631        5.7122387610       -8.8301316781  MEMB      108             0.0000000000
     12518       108  SAPS      H6R            13.0851462472        4.9955708060       -8.4595373657  MEMB      108             0.0000000000
     12519       108  SAPS      C27            12.3770648552        7.1715164536       -8.4024238098  MEMB      108             0.0000000000
     12520       108  SAPS      H7R            11.5064541671        7.2754196435       -7.7201023469  MEMB      108             0.0000000000
     12521       108  SAPS      H7S            12.2689464168        7.9074275764       -9.2276907140  MEMB      108             0.0000000000
     12522       108  SAPS      C28            13.6011424490        7.5222915938       -7.6284132101  MEMB      108             0.0000000000
     12523       108  SAPS      H8R            14.0142017629        6.6257514542       -7.1430298531  MEMB      108             0.0000000000
     12524       108  SAPS      C29            14.2489939037        8.7299677227       -7.5448702502  MEMB      108             0.0000000000
     12525       108  SAPS      H9R            15.1189331894        8.7374409314       -6.8717064554  MEMB      108             0.0000000000
     12526       108  SAPS      C210           13.8389623083       10.0326385697       -8.2401792024  MEMB      108             0.0000000000
     12527       108  SAPS      H10R           12.7474886680       10.1989435952       -8.1162884758  MEMB      108             0.0000000000
     12528       108  SAPS      H10S           13.9408297740        9.9417256297       -9.3427568490  MEMB      108             0.0000000000
     12529       108  SAPS      C211           14.5465586293       11.3334500428       -7.9438189224  MEMB      108             0.0000000000
     12530       108  SAPS      H11R           15.3489332333       11.6377847108       -8.6319869048  MEMB      108             0.0000000000
     12531       108  SAPS      C212           14.2503881737       12.1709736016       -6.9958789959  MEMB      108             0.0000000000
     12532       108  SAPS      H12R           14.9075885874       13.0313531490       -6.8013677480  MEMB      108             0.0000000000
     12533       108  SAPS      C213           13.1175550359       12.1477567489       -5.9481778800  MEMB      108             0.0000000000
     12534       108  SAPS      H13R           13.5590963188       11.8838723152       -4.9634306865  MEMB      108             0.0000000000
     12535       108  SAPS      H13S           12.5212098285       11.2448069130       -6.1999224347  MEMB      108             0.0000000000
     12536       108  SAPS      C214           12.1906733950       13.3391098353       -5.9120678287  MEMB      108             0.0000000000
     12537       108  SAPS      H14R           12.4055611435       14.1806412965       -6.5870854186  MEMB      108             0.0000000000
     12538       108  SAPS      C215           11.2223045442       13.4071467373       -5.0673882531  MEMB      108             0.0000000000
     12539       108  SAPS      H15R           10.5602164852       14.2805178832       -4.9732478895  MEMB      108             0.0000000000
     12540       108  SAPS      C216           10.8258740785       12.4028678547       -3.9651842620  MEMB      108             0.0000000000
     12541       108  SAPS      H16R           11.7204267941       11.7524720163       -3.8599126915  MEMB      108             0.0000000000
     12542       108  SAPS      H16S            9.9612131581       11.7839447793       -4.2870803543  MEMB      108             0.0000000000
     12543       108  SAPS      C217           10.4959920433       13.1518425432       -2.6428881606  MEMB      108             0.0000000000
     12544       108  SAPS      H17R            9.6756268353       13.8518329965       -2.9099768466  MEMB      108             0.0000000000
     12545       108  SAPS      H17S           11.1804491761       13.7585909994       -2.0122568100  MEMB      108             0.0000000000
     12546       108  SAPS      C218            9.8719713460       12.1682148929       -1.6524359049  MEMB      108             0.0000000000
     12547       108  SAPS      H18R            8.8900583600       11.7289924899       -1.9303768553  MEMB      108             0.0000000000
     12548       108  SAPS      H18S            9.5998470996       12.7418201008       -0.7407087066  MEMB      108             0.0000000000
     12549       108  SAPS      C219           10.7340622057       10.9528527161       -1.2844977621  MEMB      108             0.0000000000
     12550       108  SAPS      H19R           11.6611838168       11.3618701719       -0.8290087081  MEMB      108             0.0000000000
     12551       108  SAPS      H19S           11.1957007297       10.2535915063       -2.0140496059  MEMB      108             0.0000000000
     12552       108  SAPS      C220           10.1621134573       10.1461874056       -0.1167998322  MEMB      108             0.0000000000
     12553       108  SAPS      H20R           10.8844288113        9.4466468393        0.3556640419  MEMB      108             0.0000000000
     12554       108  SAPS      H20S            9.2817549783        9.5507028913       -0.4403559049  MEMB      108             0.0000000000
     12555       108  SAPS      H20T            9.8612287623       10.8067014679        0.7243362754  MEMB      108             0.0000000000
     12556       108  SAPS      C33            10.9571917016       13.0899326163      -11.1861012474  MEMB      108             0.0000000000
     12557       108  SAPS      H3X            10.6928932623       14.1568831237      -11.0245954561  MEMB      108             0.0000000000
     12558       108  SAPS      H3Y            11.4703038066       12.7573334571      -10.2585160628  MEMB      108             0.0000000000
     12559       108  SAPS      C34             9.5555681003       12.4017975569      -11.1771445640  MEMB      108             0.0000000000
     12560       108  SAPS      H4X             9.5999286607       11.3014758571      -11.3242679416  MEMB      108             0.0000000000
     12561       108  SAPS      H4Y             8.9537820533       12.8625597917      -11.9894696700  MEMB      108             0.0000000000
     12562       108  SAPS      C35             8.9535175277       12.4296331538       -9.7283097632  MEMB      108             0.0000000000
     12563       108  SAPS      H5X             7.9518722490       11.9560129283       -9.8102328778  MEMB      108             0.0000000000
     12564       108  SAPS      H5Y             8.7597507223       13.5131150907       -9.5771722008  MEMB      108             0.0000000000
     12565       108  SAPS      C36             9.7796582482       11.6546580039       -8.6000377906  MEMB      108             0.0000000000
     12566       108  SAPS      H6X            10.6294913309       12.2780125811       -8.2485647542  MEMB      108             0.0000000000
     12567       108  SAPS      H6Y            10.2651741529       10.7353352720       -8.9917531187  MEMB      108             0.0000000000
     12568       108  SAPS      C37             8.7717671494       11.2084147588       -7.4751665557  MEMB      108             0.0000000000
     12569       108  SAPS      H7X             7.7496064947       11.5161509920       -7.7830732871  MEMB      108             0.0000000000
     12570       108  SAPS      H7Y             9.0717018871       11.6886763537       -6.5192853116  MEMB      108             0.0000000000
     12571       108  SAPS      C38             8.7398486199        9.7146346495       -7.2254462766  MEMB      108             0.0000000000
     12572       108  SAPS      H8X             8.9413099664        9.1898263448       -8.1837318997  MEMB      108             0.0000000000
     12573       108  SAPS      H8Y             7.6648004863        9.4763060572       -7.0778247948  MEMB      108             0.0000000000
     12574       108  SAPS      C39             9.5586467681        9.1836528410       -6.0592182438  MEMB      108             0.0000000000
     12575       108  SAPS      H9X             9.3992920671        9.7999346409       -5.1486554824  MEMB      108             0.0000000000
     12576       108  SAPS      H9Y            10.6155676066        9.2832653613       -6.3868102321  MEMB      108             0.0000000000
     12577       108  SAPS      C310            9.3602305553        7.6970967870       -5.6838994764  MEMB      108             0.0000000000
     12578       108  SAPS      H10X            9.6047240240        7.0117639849       -6.5234602543  MEMB      108             0.0000000000
     12579       108  SAPS      H10Y            8.2906488915        7.5362041431       -5.4300696469  MEMB      108             0.0000000000
     12580       108  SAPS      C311           10.2083721938        7.4052522027       -4.4218830312  MEMB      108             0.0000000000
     12581       108  SAPS      H11X           10.3444723616        6.3095492119       -4.2984619225  MEMB      108             0.0000000000
     12582       108  SAPS      H11Y            9.6549423345        7.7857371580       -3.5368593036  MEMB      108             0.0000000000
     12583       108  SAPS      C312           11.6093985985        8.0228631736       -4.5174387815  MEMB      108             0.0000000000
     12584       108  SAPS      H12X           11.4654766526        9.0748729733       -4.1905089488  MEMB      108             0.0000000000
     12585       108  SAPS      H12Y           12.0281969113        7.8909771707       -5.5379945989  MEMB      108             0.0000000000
     12586       108  SAPS      C313           12.4976632425        7.3987329839       -3.4466714358  MEMB      108             0.0000000000
     12587       108  SAPS      H13X           12.5571075744        6.2901380104       -3.4891513607  MEMB      108             0.0000000000
     12588       108  SAPS      H13Y           12.0752035566        7.5290234829       -2.4274202908  MEMB      108             0.0000000000
     12589       108  SAPS      C314           13.9644875956        7.8640635312       -3.4035939437  MEMB      108             0.0000000000
     12590       108  SAPS      H14X           14.4410969288        7.6784954715       -4.3898633170  MEMB      108             0.0000000000
     12591       108  SAPS      H14Y           14.5147203043        7.1021043574       -2.8111542015  MEMB      108             0.0000000000
     12592       108  SAPS      C315           14.2457103084        9.2635733070       -2.7399856943  MEMB      108             0.0000000000
     12593       108  SAPS      H15X           13.7584368041        9.0945242618       -1.7559588631  MEMB      108             0.0000000000
     12594       108  SAPS      H15Y           13.7284305286       10.0093217256       -3.3807671536  MEMB      108             0.0000000000
     12595       108  SAPS      C316           15.7600839520        9.4552578141       -2.5084712978  MEMB      108             0.0000000000
     12596       108  SAPS      H16X           16.1940495577        9.6835358803       -3.5054091023  MEMB      108             0.0000000000
     12597       108  SAPS      H16Y           16.3442158632        8.6174797943       -2.0711638155  MEMB      108             0.0000000000
     12598       108  SAPS      C317           16.0029349043       10.6962899549       -1.5877526517  MEMB      108             0.0000000000
     12599       108  SAPS      H17X           15.5708734931       10.4244843192       -0.6009573896  MEMB      108             0.0000000000
     12600       108  SAPS      H17Y           15.3973518878       11.5410907336       -1.9800577484  MEMB      108             0.0000000000
     12601       108  SAPS      C318           17.4539453201       11.0267575311       -1.5215256970  MEMB      108             0.0000000000
     12602       108  SAPS      H18X           17.7925564919       11.6396129292       -0.6589304245  MEMB      108             0.0000000000
     12603       108  SAPS      H18Y           17.8266716274       11.5533434658       -2.4260169012  MEMB      108             0.0000000000
     12604       108  SAPS      H18Z           17.9304746098       10.0267396235       -1.4366456386  MEMB      108             0.0000000000
     12605       109  SAPE      N              -4.1165548202      -15.4486971672      -23.0260133091  MEMB      109             0.0000000000
     12606       109  SAPE      HN1            -3.0835885413      -15.3282252017      -23.0178166680  MEMB      109             0.0000000000
     12607       109  SAPE      HN2            -4.3366065018      -16.0140371376      -23.8707430469  MEMB      109             0.0000000000
     12608       109  SAPE      HN3            -4.5045438439      -14.4874956129      -23.1106071355  MEMB      109             0.0000000000
     12609       109  SAPE      C12            -4.5336595449      -16.0925960307      -21.7403986084  MEMB      109             0.0000000000
     12610       109  SAPE      H12A           -3.8827837172      -16.9707754856      -21.5416968727  MEMB      109             0.0000000000
     12611       109  SAPE      H12B           -5.6013153589      -16.3765319104      -21.8579241342  MEMB      109             0.0000000000
     12612       109  SAPE      C11            -4.5000429565      -15.1629757227      -20.5058205283  MEMB      109             0.0000000000
     12613       109  SAPE      H11A           -4.8642894370      -15.7232914658      -19.6183005508  MEMB      109             0.0000000000
     12614       109  SAPE      H11B           -5.1353655137      -14.2628592527      -20.6489170412  MEMB      109             0.0000000000
     12615       109  SAPE      P              -2.5768811089      -14.2803744201      -18.9125207222  MEMB      109             0.0000000000
     12616       109  SAPE      O13            -1.7043736265      -13.0645919261      -19.0941422985  MEMB      109             0.0000000000
     12617       109  SAPE      O14            -3.6294326118      -14.0264620628      -17.9455095247  MEMB      109             0.0000000000
     12618       109  SAPE      O12            -3.2647241292      -14.7004300771      -20.3318505282  MEMB      109             0.0000000000
     12619       109  SAPE      O11            -1.7449948798      -15.5816029942      -18.4437444967  MEMB      109             0.0000000000
     12620       109  SAPE      C1             -0.8403597023      -16.2721160721      -19.2995513803  MEMB      109             0.0000000000
     12621       109  SAPE      HA             -1.2662671852      -16.9535852481      -20.0667041931  MEMB      109             0.0000000000
     12622       109  SAPE      HB             -0.2838895996      -15.4596769918      -19.8139489486  MEMB      109             0.0000000000
     12623       109  SAPE      C2              0.1721606481      -17.1059160818      -18.3983016879  MEMB      109             0.0000000000
     12624       109  SAPE      HS              1.0199738389      -17.4981162189      -18.9997271575  MEMB      109             0.0000000000
     12625       109  SAPE      O21            -0.5020143936      -18.0426237994      -17.5343789451  MEMB      109             0.0000000000
     12626       109  SAPE      C21            -1.0698311797      -19.1009104136      -18.1148237019  MEMB      109             0.0000000000
     12627       109  SAPE      O22            -0.8907897069      -19.5205025998      -19.3029756667  MEMB      109             0.0000000000
     12628       109  SAPE      C22            -2.0102967492      -19.7405311598      -17.1049875422  MEMB      109             0.0000000000
     12629       109  SAPE      H2R            -2.1988281260      -20.7928061603      -17.4074668709  MEMB      109             0.0000000000
     12630       109  SAPE      H2S            -1.4114335667      -19.8646204754      -16.1774714257  MEMB      109             0.0000000000
     12631       109  SAPE      C3              1.0088092909      -16.2158484783      -17.4195293571  MEMB      109             0.0000000000
     12632       109  SAPE      HX              1.5182471665      -15.3271046150      -17.8495624646  MEMB      109             0.0000000000
     12633       109  SAPE      HY              1.8622161335      -16.8657696782      -17.1303569833  MEMB      109             0.0000000000
     12634       109  SAPE      O31             0.2834085679      -15.7300981291      -16.2387326353  MEMB      109             0.0000000000
     12635       109  SAPE      C31             0.7100254304      -16.2248896159      -15.0604718373  MEMB      109             0.0000000000
     12636       109  SAPE      O32             1.2286075311      -17.3271171861      -14.9107517369  MEMB      109             0.0000000000
     12637       109  SAPE      C32             0.3328733371      -15.2762058890      -13.9069874488  MEMB      109             0.0000000000
     12638       109  SAPE      H2X             0.5909689280      -15.8009061432      -12.9623196187  MEMB      109             0.0000000000
     12639       109  SAPE      H2Y            -0.7615705637      -15.0873095296      -13.9358265469  MEMB      109             0.0000000000
     12640       109  SAPE      C23            -3.3139410985      -19.0465349112      -16.6778992028  MEMB      109             0.0000000000
     12641       109  SAPE      H3R            -3.7202197622      -18.5459114925      -17.5826836157  MEMB      109             0.0000000000
     12642       109  SAPE      H3S            -2.9820978977      -18.2075326151      -16.0296117863  MEMB      109             0.0000000000
     12643       109  SAPE      C24            -4.3753004551      -19.9580633959      -15.8548504630  MEMB      109             0.0000000000
     12644       109  SAPE      H4R            -3.7352049888      -20.2921961742      -15.0104847448  MEMB      109             0.0000000000
     12645       109  SAPE      H4S            -4.5794797132      -20.9095624369      -16.3908374741  MEMB      109             0.0000000000
     12646       109  SAPE      C25            -5.6126608239      -19.2632169807      -15.3393068471  MEMB      109             0.0000000000
     12647       109  SAPE      H5R            -6.4176896685      -19.1239629365      -16.0758778461  MEMB      109             0.0000000000
     12648       109  SAPE      C26            -5.8579388519      -18.8678436364      -14.0221331013  MEMB      109             0.0000000000
     12649       109  SAPE      H6R            -6.8475359515      -18.4065154257      -13.8884410808  MEMB      109             0.0000000000
     12650       109  SAPE      C27            -5.0862683578      -18.9229862164      -12.7299268706  MEMB      109             0.0000000000
     12651       109  SAPE      H7R            -4.9998728256      -19.9981939702      -12.4638708567  MEMB      109             0.0000000000
     12652       109  SAPE      H7S            -5.5739740626      -18.5224185702      -11.8155912458  MEMB      109             0.0000000000
     12653       109  SAPE      C28            -3.7328641248      -18.2499371410      -12.8880540421  MEMB      109             0.0000000000
     12654       109  SAPE      H8R            -3.6972179409      -17.2820259793      -13.4094729502  MEMB      109             0.0000000000
     12655       109  SAPE      C29            -2.5986557944      -18.5837198479      -12.1954253098  MEMB      109             0.0000000000
     12656       109  SAPE      H9R            -1.6639878470      -18.0218178808      -12.3391685630  MEMB      109             0.0000000000
     12657       109  SAPE      C210           -2.5629865549      -19.6720468557      -11.2066252397  MEMB      109             0.0000000000
     12658       109  SAPE      H10R           -2.5985285120      -20.6401920992      -11.7504565098  MEMB      109             0.0000000000
     12659       109  SAPE      H10S           -3.4667108400      -19.6726211499      -10.5604031821  MEMB      109             0.0000000000
     12660       109  SAPE      C211           -1.3456766625      -19.5773161129      -10.2741674091  MEMB      109             0.0000000000
     12661       109  SAPE      H11R           -0.6117219795      -20.3889562341      -10.3861980798  MEMB      109             0.0000000000
     12662       109  SAPE      C212           -1.0559749230      -18.6151217117       -9.3918335755  MEMB      109             0.0000000000
     12663       109  SAPE      H12R           -0.1416463556      -18.7273974643       -8.7906695811  MEMB      109             0.0000000000
     12664       109  SAPE      C213           -1.8467493199      -17.3451979833       -9.0871407914  MEMB      109             0.0000000000
     12665       109  SAPE      H13R           -2.2284916677      -16.9223590364      -10.0409749062  MEMB      109             0.0000000000
     12666       109  SAPE      H13S           -1.1898832864      -16.5059083944       -8.7733878837  MEMB      109             0.0000000000
     12667       109  SAPE      C214           -2.9855834665      -17.4868917550       -8.1403595498  MEMB      109             0.0000000000
     12668       109  SAPE      H14R           -3.9519979170      -17.6812410922       -8.6284895482  MEMB      109             0.0000000000
     12669       109  SAPE      C215           -2.7827402256      -17.6946248539       -6.8250870593  MEMB      109             0.0000000000
     12670       109  SAPE      H15R           -3.6650085684      -17.8311417564       -6.1824631108  MEMB      109             0.0000000000
     12671       109  SAPE      C216           -1.4836475032      -17.7098483532       -6.0369114913  MEMB      109             0.0000000000
     12672       109  SAPE      H16R           -0.8360979410      -16.8691885768       -6.3659889478  MEMB      109             0.0000000000
     12673       109  SAPE      H16S           -0.9875802639      -18.7024518076       -6.0914703390  MEMB      109             0.0000000000
     12674       109  SAPE      C217           -1.6704828494      -17.5422094670       -4.4944618455  MEMB      109             0.0000000000
     12675       109  SAPE      H17R           -2.2193419626      -16.5927104571       -4.3169053672  MEMB      109             0.0000000000
     12676       109  SAPE      H17S           -0.6324671449      -17.4203432887       -4.1176433506  MEMB      109             0.0000000000
     12677       109  SAPE      C218           -2.3841632321      -18.6612947139       -3.7598076671  MEMB      109             0.0000000000
     12678       109  SAPE      H18R           -1.6685550463      -19.4820082717       -3.5392291291  MEMB      109             0.0000000000
     12679       109  SAPE      H18S           -3.1280308427      -19.1169614534       -4.4478132776  MEMB      109             0.0000000000
     12680       109  SAPE      C219           -3.0688171815      -18.2984116679       -2.4290455534  MEMB      109             0.0000000000
     12681       109  SAPE      H19R           -3.8755874811      -17.5777653768       -2.6822488844  MEMB      109             0.0000000000
     12682       109  SAPE      H19S           -2.2886913572      -17.7084357497       -1.9021180172  MEMB      109             0.0000000000
     12683       109  SAPE      C220           -3.5412764933      -19.4641509558       -1.5177308959  MEMB      109             0.0000000000
     12684       109  SAPE      H20R           -2.6552215930      -20.0171990857       -1.1390941943  MEMB      109             0.0000000000
     12685       109  SAPE      H20S           -4.1352484879      -20.1313866331       -2.1782718388  MEMB      109             0.0000000000
     12686       109  SAPE      H20T           -4.2967117050      -19.1372242100       -0.7715691685  MEMB      109             0.0000000000
     12687       109  SAPE      C33             1.1226416771      -14.0165682571      -14.0106231180  MEMB      109             0.0000000000
     12688       109  SAPE      H3X             1.0335344735      -13.6334216911      -15.0496513716  MEMB      109             0.0000000000
     12689       109  SAPE      H3Y             2.2111402888      -14.2152974952      -13.9106312841  MEMB      109             0.0000000000
     12690       109  SAPE      C34             0.6573998767      -12.8681925138      -12.9960700585  MEMB      109             0.0000000000
     12691       109  SAPE      H4X             1.4248498359      -12.0899847004      -12.7967366887  MEMB      109             0.0000000000
     12692       109  SAPE      H4Y             0.5010875567      -13.3463172250      -12.0054724712  MEMB      109             0.0000000000
     12693       109  SAPE      C35            -0.5542955646      -11.9742378634      -13.5693751115  MEMB      109             0.0000000000
     12694       109  SAPE      H5X            -1.0009770560      -12.6102517415      -14.3632785919  MEMB      109             0.0000000000
     12695       109  SAPE      H5Y            -0.1364441891      -11.0643766075      -14.0509077317  MEMB      109             0.0000000000
     12696       109  SAPE      C36            -1.6581525400      -11.4348797831      -12.6170524626  MEMB      109             0.0000000000
     12697       109  SAPE      H6X            -1.9838305124      -10.4504983585      -13.0161117931  MEMB      109             0.0000000000
     12698       109  SAPE      H6Y            -1.2920034308      -11.2064055257      -11.5933065753  MEMB      109             0.0000000000
     12699       109  SAPE      C37            -2.8250792374      -12.4165667219      -12.5292773746  MEMB      109             0.0000000000
     12700       109  SAPE      H7X            -2.4848457351      -13.4371759870      -12.2519350483  MEMB      109             0.0000000000
     12701       109  SAPE      H7Y            -3.2617902174      -12.3209733580      -13.5463645532  MEMB      109             0.0000000000
     12702       109  SAPE      C38            -3.9771350245      -12.0766341081      -11.4864742417  MEMB      109             0.0000000000
     12703       109  SAPE      H8X            -4.8132884933      -12.7784301321      -11.6929951947  MEMB      109             0.0000000000
     12704       109  SAPE      H8Y            -4.3490969641      -11.0502594858      -11.6926791697  MEMB      109             0.0000000000
     12705       109  SAPE      C39            -3.5263373392      -12.1833166363      -10.0146263701  MEMB      109             0.0000000000
     12706       109  SAPE      H9X            -4.4167818993      -12.3163751070       -9.3636851381  MEMB      109             0.0000000000
     12707       109  SAPE      H9Y            -3.1422600253      -11.1537528252       -9.8509079263  MEMB      109             0.0000000000
     12708       109  SAPE      C310           -2.4875103073      -13.2522009037       -9.5885223730  MEMB      109             0.0000000000
     12709       109  SAPE      H10X           -1.4476405503      -12.9768394876       -9.8663134491  MEMB      109             0.0000000000
     12710       109  SAPE      H10Y           -2.6839154510      -14.1020350333      -10.2766559377  MEMB      109             0.0000000000
     12711       109  SAPE      C311           -2.6564112132      -13.4783844378       -8.0744261018  MEMB      109             0.0000000000
     12712       109  SAPE      H11X           -1.9161308547      -14.2163417081       -7.6979623405  MEMB      109             0.0000000000
     12713       109  SAPE      H11Y           -3.6267882689      -14.0115873002       -7.9828619691  MEMB      109             0.0000000000
     12714       109  SAPE      C312           -2.5232195821      -12.2376603701       -7.1344092994  MEMB      109             0.0000000000
     12715       109  SAPE      H12X           -3.2661736554      -11.4552149986       -7.3992102436  MEMB      109             0.0000000000
     12716       109  SAPE      H12Y           -1.5763545460      -11.6578356840       -7.0947759917  MEMB      109             0.0000000000
     12717       109  SAPE      C313           -2.9391277212      -12.4545679679       -5.6430015593  MEMB      109             0.0000000000
     12718       109  SAPE      H13X           -3.8804186408      -13.0445599857       -5.6287995015  MEMB      109             0.0000000000
     12719       109  SAPE      H13Y           -3.1691759411      -11.4392727348       -5.2549620232  MEMB      109             0.0000000000
     12720       109  SAPE      C314           -1.9505852784      -13.1843627180       -4.7718281524  MEMB      109             0.0000000000
     12721       109  SAPE      H14X           -1.0445498133      -12.5417710787       -4.7495392614  MEMB      109             0.0000000000
     12722       109  SAPE      H14Y           -1.6464463132      -14.1775639394       -5.1660001715  MEMB      109             0.0000000000
     12723       109  SAPE      C315           -2.4874152455      -13.2996812982       -3.3633263717  MEMB      109             0.0000000000
     12724       109  SAPE      H15X           -3.4712665079      -13.8157660617       -3.3671329050  MEMB      109             0.0000000000
     12725       109  SAPE      H15Y           -2.6694423349      -12.2439947330       -3.0688568972  MEMB      109             0.0000000000
     12726       109  SAPE      C316           -1.6228636495      -14.0144817245       -2.3272771579  MEMB      109             0.0000000000
     12727       109  SAPE      H16X           -0.5436214930      -13.7708222179       -2.4282097171  MEMB      109             0.0000000000
     12728       109  SAPE      H16Y           -1.6608642857      -15.0955265766       -2.5806915770  MEMB      109             0.0000000000
     12729       109  SAPE      C317           -2.0622974509      -13.4863805668       -0.9055978729  MEMB      109             0.0000000000
     12730       109  SAPE      H17X           -3.1333749773      -13.7786342844       -0.8643430735  MEMB      109             0.0000000000
     12731       109  SAPE      H17Y           -2.1382810120      -12.3782912424       -0.8794218055  MEMB      109             0.0000000000
     12732       109  SAPE      C318           -1.2640843189      -14.0130187444        0.3096587037  MEMB      109             0.0000000000
     12733       109  SAPE      H18X           -1.9085381706      -13.9847338191        1.2142035111  MEMB      109             0.0000000000
     12734       109  SAPE      H18Y           -0.3555965044      -13.4063283658        0.5118899779  MEMB      109             0.0000000000
     12735       109  SAPE      H18Z           -1.0986245425      -15.0517876870       -0.0479765926  MEMB      109             0.0000000000
     12736       110  CHL1      C3             -9.6640748024       13.0897869132      -17.2963150000  MEMB      110             0.0000000000
     12737       110  CHL1      H3             -9.2456890348       12.1098338266      -16.9817150000  MEMB      110             0.0000000000
     12738       110  CHL1      O3             -9.6247622176       13.1282420868      -18.7036850000  MEMB      110             0.0000000000
     12739       110  CHL1      H3'            -8.7687363879       12.8267806279      -19.0166250000  MEMB      110             0.0000000000
     12740       110  CHL1      C4            -11.1196191073       13.1043537336      -16.6914050000  MEMB      110             0.0000000000
     12741       110  CHL1      H4A           -11.4197728134       14.1390447388      -16.9627850000  MEMB      110             0.0000000000
     12742       110  CHL1      H4B           -11.7193402301       12.2780945202      -17.1295350000  MEMB      110             0.0000000000
     12743       110  CHL1      C5            -11.1126523439       13.0017563559      -15.1663050000  MEMB      110             0.0000000000
     12744       110  CHL1      C6            -11.8312654956       12.0303667789      -14.5360050000  MEMB      110             0.0000000000
     12745       110  CHL1      H6            -12.2151762098       11.1703895571      -15.1043650000  MEMB      110             0.0000000000
     12746       110  CHL1      C7            -12.0734169976       11.9219210000      -13.0476550000  MEMB      110             0.0000000000
     12747       110  CHL1      H7A           -13.1431660592       11.7145536442      -12.8309350000  MEMB      110             0.0000000000
     12748       110  CHL1      H7B           -11.5007263783       11.0551869221      -12.6538150000  MEMB      110             0.0000000000
     12749       110  CHL1      C8            -11.5992650241       13.2263872988      -12.4082950000  MEMB      110             0.0000000000
     12750       110  CHL1      H8            -12.3272971131       14.0170915858      -12.6895150000  MEMB      110             0.0000000000
     12751       110  CHL1      C14           -11.4910485803       12.9856847292      -10.9416250000  MEMB      110             0.0000000000
     12752       110  CHL1      H14           -10.7821733767       12.1372266523      -10.8323750000  MEMB      110             0.0000000000
     12753       110  CHL1      C15           -12.7257200349       12.2737900290      -10.3334350000  MEMB      110             0.0000000000
     12754       110  CHL1      H15A          -13.5996790755       12.7003872581      -10.8705850000  MEMB      110             0.0000000000
     12755       110  CHL1      H15B          -12.7956063859       11.1677303876      -10.4113150000  MEMB      110             0.0000000000
     12756       110  CHL1      C16           -12.5490808738       12.6043395442       -8.8153350000  MEMB      110             0.0000000000
     12757       110  CHL1      H16A          -13.2343520387       13.4718917002       -8.7054450000  MEMB      110             0.0000000000
     12758       110  CHL1      H16B          -12.8530589774       11.8211767660       -8.0883050000  MEMB      110             0.0000000000
     12759       110  CHL1      C17           -11.1755784074       13.2391087830       -8.6933450000  MEMB      110             0.0000000000
     12760       110  CHL1      H17           -10.4308828536       12.4276774547       -8.5472550000  MEMB      110             0.0000000000
     12761       110  CHL1      C13           -10.8338663886       13.9521353120       -9.9413050000  MEMB      110             0.0000000000
     12762       110  CHL1      C18           -11.6138738724       15.2683452458      -10.0896350000  MEMB      110             0.0000000000
     12763       110  CHL1      H18A          -11.7187086385       15.6724497222      -11.1192150000  MEMB      110             0.0000000000
     12764       110  CHL1      H18B          -12.6809342680       15.1826684466       -9.7923550000  MEMB      110             0.0000000000
     12765       110  CHL1      H18C          -11.1113731906       16.0461036152       -9.4757150000  MEMB      110             0.0000000000
     12766       110  CHL1      C12            -9.4111297748       14.1367013314      -10.4470850000  MEMB      110             0.0000000000
     12767       110  CHL1      H12A           -8.8553750900       14.8506131161       -9.8022650000  MEMB      110             0.0000000000
     12768       110  CHL1      H12B           -8.9307964814       13.1370539778      -10.3813950000  MEMB      110             0.0000000000
     12769       110  CHL1      C11            -9.3708866020       14.6300335998      -11.9647350000  MEMB      110             0.0000000000
     12770       110  CHL1      H11A           -9.7802248648       15.6605205162      -12.0345450000  MEMB      110             0.0000000000
     12771       110  CHL1      H11B           -8.3239849141       14.6476554028      -12.3362150000  MEMB      110             0.0000000000
     12772       110  CHL1      C9            -10.1902938026       13.6206549494      -12.9319450000  MEMB      110             0.0000000000
     12773       110  CHL1      H9             -9.6439133234       12.6591251278      -12.8258350000  MEMB      110             0.0000000000
     12774       110  CHL1      C10           -10.3386758999       14.0806407532      -14.4464950000  MEMB      110             0.0000000000
     12775       110  CHL1      C19           -10.9881482632       15.4939532575      -14.5284750000  MEMB      110             0.0000000000
     12776       110  CHL1      H19A          -12.0007267214       15.4966404182      -14.0713050000  MEMB      110             0.0000000000
     12777       110  CHL1      H19B          -10.3247843890       16.2244920098      -14.0179950000  MEMB      110             0.0000000000
     12778       110  CHL1      H19C          -11.1318715026       15.7638888302      -15.5965650000  MEMB      110             0.0000000000
     12779       110  CHL1      C1             -8.8772650626       14.0855502028      -15.1129750000  MEMB      110             0.0000000000
     12780       110  CHL1      H1A            -8.3727586151       14.8737046342      -14.5141450000  MEMB      110             0.0000000000
     12781       110  CHL1      H1B            -8.4246689632       13.1169845524      -14.8107350000  MEMB      110             0.0000000000
     12782       110  CHL1      C2             -8.7957027260       14.1463576576      -16.6103350000  MEMB      110             0.0000000000
     12783       110  CHL1      H2A            -7.8174761537       13.8578892867      -17.0509750000  MEMB      110             0.0000000000
     12784       110  CHL1      H2B            -9.0305189401       15.1926647827      -16.9009150000  MEMB      110             0.0000000000
     12785       110  CHL1      C20           -11.0375934718       14.1582756558       -7.3470250000  MEMB      110             0.0000000000
     12786       110  CHL1      H20           -11.6615813743       15.0716171059       -7.2432350000  MEMB      110             0.0000000000
     12787       110  CHL1      C21            -9.5755609652       14.6098279686       -7.1639950000  MEMB      110             0.0000000000
     12788       110  CHL1      H21A           -8.9130349424       13.7519393010       -7.4077450000  MEMB      110             0.0000000000
     12789       110  CHL1      H21B           -9.3104503875       14.8983694494       -6.1243950000  MEMB      110             0.0000000000
     12790       110  CHL1      H21C           -9.2222410267       15.4412302671       -7.8107250000  MEMB      110             0.0000000000
     12791       110  CHL1      C22           -11.6143813399       13.3325626363       -6.0769850000  MEMB      110             0.0000000000
     12792       110  CHL1      H22A          -12.5904849762       12.8758783382       -6.3471150000  MEMB      110             0.0000000000
     12793       110  CHL1      H22B          -10.8109694429       12.6129689269       -5.8104550000  MEMB      110             0.0000000000
     12794       110  CHL1      C23           -12.0681547148       14.3633978598       -4.9890450000  MEMB      110             0.0000000000
     12795       110  CHL1      H23A          -11.2165498590       15.0019694903       -4.6707450000  MEMB      110             0.0000000000
     12796       110  CHL1      H23B          -12.7419870056       15.0539000416       -5.5399250000  MEMB      110             0.0000000000
     12797       110  CHL1      C24           -12.9044779795       13.8626351338       -3.7633750000  MEMB      110             0.0000000000
     12798       110  CHL1      H24A          -13.1281782121       14.6924593576       -3.0593350000  MEMB      110             0.0000000000
     12799       110  CHL1      H24B          -13.7806715508       13.3203549071       -4.1787650000  MEMB      110             0.0000000000
     12800       110  CHL1      C25           -12.1634369993       12.9359210583       -2.9226350000  MEMB      110             0.0000000000
     12801       110  CHL1      H25           -11.9895666758       12.0302574557       -3.5422150000  MEMB      110             0.0000000000
     12802       110  CHL1      C26           -10.8918067195       13.4460757581       -2.2104950000  MEMB      110             0.0000000000
     12803       110  CHL1      H26A          -11.1236215357       14.2334183915       -1.4617150000  MEMB      110             0.0000000000
     12804       110  CHL1      H26B          -10.3956621398       12.5716710080       -1.7376450000  MEMB      110             0.0000000000
     12805       110  CHL1      H26C          -10.1924367634       13.7651989781       -3.0125950000  MEMB      110             0.0000000000
     12806       110  CHL1      C27           -12.9938680235       12.4932974766       -1.6805850000  MEMB      110             0.0000000000
     12807       110  CHL1      H27A          -12.9915883752       13.3242885574       -0.9431850000  MEMB      110             0.0000000000
     12808       110  CHL1      H27B          -13.9890641313       12.1463901526       -2.0320950000  MEMB      110             0.0000000000
     12809       110  CHL1      H27C          -12.4334092289       11.6583818676       -1.2082150000  MEMB      110             0.0000000000
     12810       111  CHL1      C3            -16.1470901245        0.8352363865      -17.3300050000  MEMB      111             0.0000000000
     12811       111  CHL1      H3            -15.3828372886        0.0546474427      -17.1277450000  MEMB      111             0.0000000000
     12812       111  CHL1      O3            -16.6578518755        0.7800935215      -18.6699950000  MEMB      111             0.0000000000
     12813       111  CHL1      H3'           -15.9415012148        0.5545848711      -19.2679750000  MEMB      111             0.0000000000
     12814       111  CHL1      C4            -17.2784214606        0.7645084389      -16.3039650000  MEMB      111             0.0000000000
     12815       111  CHL1      H4A           -17.9320063941        1.6248875349      -16.5625850000  MEMB      111             0.0000000000
     12816       111  CHL1      H4B           -17.8701507218       -0.1613194346      -16.4683250000  MEMB      111             0.0000000000
     12817       111  CHL1      C5            -16.9227625006        1.0258347764      -14.8349850000  MEMB      111             0.0000000000
     12818       111  CHL1      C6            -17.1627310432        0.1693263160      -13.8713250000  MEMB      111             0.0000000000
     12819       111  CHL1      H6            -17.6612803361       -0.7781915092      -14.1236450000  MEMB      111             0.0000000000
     12820       111  CHL1      C7            -16.8863091122        0.3883188640      -12.4454550000  MEMB      111             0.0000000000
     12821       111  CHL1      H7A           -17.7245247795        0.0999589484      -11.7757050000  MEMB      111             0.0000000000
     12822       111  CHL1      H7B           -16.0922787895       -0.3019470813      -12.0885750000  MEMB      111             0.0000000000
     12823       111  CHL1      C8            -16.4403168131        1.8657011014      -12.1737750000  MEMB      111             0.0000000000
     12824       111  CHL1      H8            -17.3556788090        2.4893842029      -12.2600450000  MEMB      111             0.0000000000
     12825       111  CHL1      C14           -15.7851009582        1.9657417255      -10.8550850000  MEMB      111             0.0000000000
     12826       111  CHL1      H14           -14.8513553486        1.3700044654      -10.9419350000  MEMB      111             0.0000000000
     12827       111  CHL1      C15           -16.4901818917        1.2374003260       -9.6414550000  MEMB      111             0.0000000000
     12828       111  CHL1      H15A          -17.5960588791        1.2342269411       -9.7479550000  MEMB      111             0.0000000000
     12829       111  CHL1      H15B          -16.2129822299        0.1616846087       -9.6234550000  MEMB      111             0.0000000000
     12830       111  CHL1      C16           -16.0025756246        2.0197143668       -8.4224350000  MEMB      111             0.0000000000
     12831       111  CHL1      H16A          -16.8369304413        2.5727994865       -7.9404850000  MEMB      111             0.0000000000
     12832       111  CHL1      H16B          -15.6721051939        1.2851767575       -7.6572150000  MEMB      111             0.0000000000
     12833       111  CHL1      C17           -14.8388400867        3.0303474614       -8.9385850000  MEMB      111             0.0000000000
     12834       111  CHL1      H17           -13.9132028358        2.4162522760       -8.9182950000  MEMB      111             0.0000000000
     12835       111  CHL1      C13           -15.2531745052        3.2947610617      -10.4087850000  MEMB      111             0.0000000000
     12836       111  CHL1      C18           -16.4697833910        4.3007927765      -10.4082250000  MEMB      111             0.0000000000
     12837       111  CHL1      H18A          -17.2351280689        4.0277559093       -9.6505950000  MEMB      111             0.0000000000
     12838       111  CHL1      H18B          -16.1272732544        5.3381890295      -10.2061950000  MEMB      111             0.0000000000
     12839       111  CHL1      H18C          -16.9913562712        4.5121418573      -11.3661550000  MEMB      111             0.0000000000
     12840       111  CHL1      C12           -14.1185420050        3.6763449425      -11.3577650000  MEMB      111             0.0000000000
     12841       111  CHL1      H12A          -13.6881607340        4.6822041741      -11.1644850000  MEMB      111             0.0000000000
     12842       111  CHL1      H12B          -13.2821471802        2.9517459410      -11.2590950000  MEMB      111             0.0000000000
     12843       111  CHL1      C11           -14.5958883698        3.6982254036      -12.8736650000  MEMB      111             0.0000000000
     12844       111  CHL1      H11A          -15.3251495518        4.5199725126      -13.0386950000  MEMB      111             0.0000000000
     12845       111  CHL1      H11B          -13.7254146716        3.8192771594      -13.5533250000  MEMB      111             0.0000000000
     12846       111  CHL1      C9            -15.3866197438        2.3251791446      -13.2092150000  MEMB      111             0.0000000000
     12847       111  CHL1      H9            -14.5315500142        1.6159781180      -13.2232750000  MEMB      111             0.0000000000
     12848       111  CHL1      C10           -15.9567333686        2.2849872385      -14.6398550000  MEMB      111             0.0000000000
     12849       111  CHL1      C19           -16.8105559342        3.5683318362      -14.7278950000  MEMB      111             0.0000000000
     12850       111  CHL1      H19A          -17.5623910740        3.4013731556      -15.5286450000  MEMB      111             0.0000000000
     12851       111  CHL1      H19B          -17.3668288615        3.8435289345      -13.8064050000  MEMB      111             0.0000000000
     12852       111  CHL1      H19C          -16.0844130866        4.3304807242      -15.0831050000  MEMB      111             0.0000000000
     12853       111  CHL1      C1            -14.7865293985        2.1344927106      -15.7290950000  MEMB      111             0.0000000000
     12854       111  CHL1      H1A           -14.0416013077        2.9586894442      -15.7192750000  MEMB      111             0.0000000000
     12855       111  CHL1      H1B           -14.2446712284        1.1785037023      -15.5653850000  MEMB      111             0.0000000000
     12856       111  CHL1      C2            -15.3234858934        2.1451481244      -17.1818150000  MEMB      111             0.0000000000
     12857       111  CHL1      H2A           -14.4632214067        2.1631751414      -17.8846150000  MEMB      111             0.0000000000
     12858       111  CHL1      H2B           -16.0258159949        2.9990483078      -17.2909150000  MEMB      111             0.0000000000
     12859       111  CHL1      C20           -14.6371127815        4.2062895342       -7.9539550000  MEMB      111             0.0000000000
     12860       111  CHL1      H20           -15.6297776660        4.6959201370       -7.8580450000  MEMB      111             0.0000000000
     12861       111  CHL1      C21           -13.5794365204        5.2130849873       -8.5549850000  MEMB      111             0.0000000000
     12862       111  CHL1      H21A          -12.7852204727        4.7182045790       -9.1538450000  MEMB      111             0.0000000000
     12863       111  CHL1      H21B          -13.1346384131        5.8418613843       -7.7542950000  MEMB      111             0.0000000000
     12864       111  CHL1      H21C          -14.0127650097        5.9525735558       -9.2618850000  MEMB      111             0.0000000000
     12865       111  CHL1      C22           -14.2200755514        3.6900400750       -6.5075150000  MEMB      111             0.0000000000
     12866       111  CHL1      H22A          -14.7685139466        2.8147928917       -6.0982650000  MEMB      111             0.0000000000
     12867       111  CHL1      H22B          -13.1538754088        3.3831333153       -6.5652950000  MEMB      111             0.0000000000
     12868       111  CHL1      C23           -14.3567872356        4.7681943728       -5.4417350000  MEMB      111             0.0000000000
     12869       111  CHL1      H23A          -13.4985220307        5.4577156106       -5.5909250000  MEMB      111             0.0000000000
     12870       111  CHL1      H23B          -15.2988002935        5.3265440548       -5.6292650000  MEMB      111             0.0000000000
     12871       111  CHL1      C24           -14.3821511483        4.1761485635       -4.0268750000  MEMB      111             0.0000000000
     12872       111  CHL1      H24A          -15.1322890826        3.3753731521       -3.8526050000  MEMB      111             0.0000000000
     12873       111  CHL1      H24B          -13.4289418117        3.6782723959       -3.7478750000  MEMB      111             0.0000000000
     12874       111  CHL1      C25           -14.6229890386        5.1317632530       -2.7810250000  MEMB      111             0.0000000000
     12875       111  CHL1      H25           -14.6090390695        4.5706712544       -1.8222250000  MEMB      111             0.0000000000
     12876       111  CHL1      C26           -13.5731031264        6.2852702658       -2.6790450000  MEMB      111             0.0000000000
     12877       111  CHL1      H26A          -13.4979385243        6.8034861440       -3.6589050000  MEMB      111             0.0000000000
     12878       111  CHL1      H26B          -13.9052455408        7.1247483910       -2.0315250000  MEMB      111             0.0000000000
     12879       111  CHL1      H26C          -12.5652166740        5.9277474224       -2.3779550000  MEMB      111             0.0000000000
     12880       111  CHL1      C27           -15.9551240319        5.8184543557       -2.7204650000  MEMB      111             0.0000000000
     12881       111  CHL1      H27A          -16.8026023406        5.1027547171       -2.6582750000  MEMB      111             0.0000000000
     12882       111  CHL1      H27B          -15.9439487770        6.5049273242       -1.8469950000  MEMB      111             0.0000000000
     12883       111  CHL1      H27C          -16.1288712992        6.3953605716       -3.6539050000  MEMB      111             0.0000000000
     12884       112  CHL1      C3             16.4770918775       -1.0829886539      -17.3222600000  MEMB      112             0.0000000000
     12885       112  CHL1      H3             16.1908358130       -0.0111404042      -17.3816000000  MEMB      112             0.0000000000
     12886       112  CHL1      O3             16.5550169225       -1.5748605261      -18.6777400000  MEMB      112             0.0000000000
     12887       112  CHL1      H3'            17.0198528747       -0.9081246850      -19.1886100000  MEMB      112             0.0000000000
     12888       112  CHL1      C4             17.8103269307       -1.1938039865      -16.6418300000  MEMB      112             0.0000000000
     12889       112  CHL1      H4A            18.1172740228       -2.2611209035      -16.6722300000  MEMB      112             0.0000000000
     12890       112  CHL1      H4B            18.6177311016       -0.7136982501      -17.2350700000  MEMB      112             0.0000000000
     12891       112  CHL1      C5             17.7017903634       -0.6007296005      -15.2479500000  MEMB      112             0.0000000000
     12892       112  CHL1      C6             18.4193936248        0.4251425815      -14.8321800000  MEMB      112             0.0000000000
     12893       112  CHL1      H6             19.0881899788        0.9849164865      -15.5025100000  MEMB      112             0.0000000000
     12894       112  CHL1      C7             18.4691617968        0.8298504524      -13.3742500000  MEMB      112             0.0000000000
     12895       112  CHL1      H7A            19.5529892778        0.9036150740      -13.1414300000  MEMB      112             0.0000000000
     12896       112  CHL1      H7B            18.0369086551        1.8466762480      -13.2577900000  MEMB      112             0.0000000000
     12897       112  CHL1      C8             17.7627048649       -0.1233735676      -12.3568000000  MEMB      112             0.0000000000
     12898       112  CHL1      H8             18.3765185692       -1.0200880790      -12.1255900000  MEMB      112             0.0000000000
     12899       112  CHL1      C14            17.4802806656        0.6470425998      -11.1477200000  MEMB      112             0.0000000000
     12900       112  CHL1      H14            16.8320647011        1.4950547315      -11.4559500000  MEMB      112             0.0000000000
     12901       112  CHL1      C15            18.6491005146        1.2636239092      -10.3783100000  MEMB      112             0.0000000000
     12902       112  CHL1      H15A           19.4494072990        0.4972916884      -10.4593500000  MEMB      112             0.0000000000
     12903       112  CHL1      H15B           18.9074087167        2.2470250017      -10.8261100000  MEMB      112             0.0000000000
     12904       112  CHL1      C16            18.1283970013        1.6518248494       -9.0124400000  MEMB      112             0.0000000000
     12905       112  CHL1      H16A           18.8069563997        1.2440092199       -8.2329800000  MEMB      112             0.0000000000
     12906       112  CHL1      H16B           18.0953230423        2.7506329072       -8.8517100000  MEMB      112             0.0000000000
     12907       112  CHL1      C17            16.6969578696        0.9191968475       -8.9180700000  MEMB      112             0.0000000000
     12908       112  CHL1      H17            15.9310029122        1.6619469991       -9.2278100000  MEMB      112             0.0000000000
     12909       112  CHL1      C13            16.7091323230       -0.0950073028      -10.0747400000  MEMB      112             0.0000000000
     12910       112  CHL1      C18            17.4933716119       -1.4205318445       -9.7458800000  MEMB      112             0.0000000000
     12911       112  CHL1      H18A           17.4964350738       -2.1808605295      -10.5559500000  MEMB      112             0.0000000000
     12912       112  CHL1      H18B           18.5746138212       -1.2937773525       -9.5241300000  MEMB      112             0.0000000000
     12913       112  CHL1      H18C           16.9783711932       -1.8593635235       -8.8646700000  MEMB      112             0.0000000000
     12914       112  CHL1      C12            15.3064291242       -0.4205641907      -10.6032000000  MEMB      112             0.0000000000
     12915       112  CHL1      H12A           14.7926760149       -1.1097405272       -9.8993500000  MEMB      112             0.0000000000
     12916       112  CHL1      H12B           14.6231565287        0.4200947221      -10.8496900000  MEMB      112             0.0000000000
     12917       112  CHL1      C11            15.5146475372       -1.2482790927      -11.9136000000  MEMB      112             0.0000000000
     12918       112  CHL1      H11A           15.9305010949       -2.2293248080      -11.5990600000  MEMB      112             0.0000000000
     12919       112  CHL1      H11B           14.5270075977       -1.4231249893      -12.3914200000  MEMB      112             0.0000000000
     12920       112  CHL1      C9             16.4725415600       -0.6186768678      -12.9371500000  MEMB      112             0.0000000000
     12921       112  CHL1      H9             15.8997501232        0.2828776612      -13.2427900000  MEMB      112             0.0000000000
     12922       112  CHL1      C10            16.6128920833       -1.3028482171      -14.3599800000  MEMB      112             0.0000000000
     12923       112  CHL1      C19            16.9971590044       -2.7570173619      -14.0608300000  MEMB      112             0.0000000000
     12924       112  CHL1      H19A           16.1649829521       -3.1480709546      -13.4372200000  MEMB      112             0.0000000000
     12925       112  CHL1      H19B           17.1459285003       -3.4099554260      -14.9473100000  MEMB      112             0.0000000000
     12926       112  CHL1      H19C           17.9079160239       -2.8369632609      -13.4296000000  MEMB      112             0.0000000000
     12927       112  CHL1      C1             15.2327330190       -1.4285227383      -15.0982400000  MEMB      112             0.0000000000
     12928       112  CHL1      H1A            14.6825357953       -2.2571647628      -14.6033100000  MEMB      112             0.0000000000
     12929       112  CHL1      H1B            14.7935814843       -0.4106943591      -15.0240800000  MEMB      112             0.0000000000
     12930       112  CHL1      C2             15.3089867114       -1.7710055324      -16.6046300000  MEMB      112             0.0000000000
     12931       112  CHL1      H2A            14.3430985287       -1.3933610236      -17.0030800000  MEMB      112             0.0000000000
     12932       112  CHL1      H2B            15.3841087026       -2.8742781040      -16.7117500000  MEMB      112             0.0000000000
     12933       112  CHL1      C20            16.4967576035        0.4858348050       -7.4407400000  MEMB      112             0.0000000000
     12934       112  CHL1      H20            17.3287714484       -0.2194048949       -7.2293100000  MEMB      112             0.0000000000
     12935       112  CHL1      C21            15.1106579090       -0.1656657488       -7.2194300000  MEMB      112             0.0000000000
     12936       112  CHL1      H21A           14.9614152060       -1.0132857819       -7.9219900000  MEMB      112             0.0000000000
     12937       112  CHL1      H21B           14.3480214879        0.6408650818       -7.1722700000  MEMB      112             0.0000000000
     12938       112  CHL1      H21C           15.2194491159       -0.6395138741       -6.2204500000  MEMB      112             0.0000000000
     12939       112  CHL1      C22            16.6515036769        1.7370168722       -6.4078700000  MEMB      112             0.0000000000
     12940       112  CHL1      H22A           17.0622349763        2.5585945935       -7.0328800000  MEMB      112             0.0000000000
     12941       112  CHL1      H22B           15.6226865487        2.0738760610       -6.1580700000  MEMB      112             0.0000000000
     12942       112  CHL1      C23            17.5140688700        1.5668864243       -5.1321500000  MEMB      112             0.0000000000
     12943       112  CHL1      H23A           18.5281560875        1.1559379466       -5.3246900000  MEMB      112             0.0000000000
     12944       112  CHL1      H23B           17.5767655077        2.5840482438       -4.6896900000  MEMB      112             0.0000000000
     12945       112  CHL1      C24            16.8775712751        0.6307903513       -4.0760600000  MEMB      112             0.0000000000
     12946       112  CHL1      H24A           15.8942202821        1.0471904990       -3.7695200000  MEMB      112             0.0000000000
     12947       112  CHL1      H24B           16.7751428127       -0.4135549762       -4.4409800000  MEMB      112             0.0000000000
     12948       112  CHL1      C25            17.6270560845        0.7156790866       -2.7354900000  MEMB      112             0.0000000000
     12949       112  CHL1      H25            17.9328806298        1.7587744571       -2.5058400000  MEMB      112             0.0000000000
     12950       112  CHL1      C26            16.7380212839        0.3053211795       -1.5414600000  MEMB      112             0.0000000000
     12951       112  CHL1      H26A           15.9352193320        1.0581342828       -1.3894900000  MEMB      112             0.0000000000
     12952       112  CHL1      H26B           16.2971206965       -0.7142673487       -1.5607100000  MEMB      112             0.0000000000
     12953       112  CHL1      H26C           17.3535958344        0.2773427356       -0.6170100000  MEMB      112             0.0000000000
     12954       112  CHL1      C27            18.8813458719       -0.1891983074       -2.7021900000  MEMB      112             0.0000000000
     12955       112  CHL1      H27A           19.6223653031        0.1784159482       -1.9605200000  MEMB      112             0.0000000000
     12956       112  CHL1      H27B           18.5658107368       -1.2373644417       -2.5121900000  MEMB      112             0.0000000000
     12957       112  CHL1      H27C           19.4153466581       -0.2518798735       -3.6744200000  MEMB      112             0.0000000000
     12958       113  CHL1      C3              9.0445467220      -14.0560729017      -17.3806000000  MEMB      113             0.0000000000
     12959       113  CHL1      H3              8.1558195377      -13.4018422268      -17.5088700000  MEMB      113             0.0000000000
     12960       113  CHL1      O3              9.5699542687      -14.6100211106      -18.6194000000  MEMB      113             0.0000000000
     12961       113  CHL1      H3'             9.9035218981      -13.8876995289      -19.1566000000  MEMB      113             0.0000000000
     12962       113  CHL1      C4             10.1263585330      -13.2306985975      -16.6860500000  MEMB      113             0.0000000000
     12963       113  CHL1      H4A            11.1217045793      -13.7153664676      -16.7793600000  MEMB      113             0.0000000000
     12964       113  CHL1      H4B            10.3203562683      -12.3332780705      -17.3116200000  MEMB      113             0.0000000000
     12965       113  CHL1      C5              9.8127072210      -12.8300589977      -15.2512500000  MEMB      113             0.0000000000
     12966       113  CHL1      C6              9.9032352681      -11.5404729926      -14.8801100000  MEMB      113             0.0000000000
     12967       113  CHL1      H6             10.1349770721      -10.8998102516      -15.7437400000  MEMB      113             0.0000000000
     12968       113  CHL1      C7              9.4719584989      -10.9958010998      -13.5764500000  MEMB      113             0.0000000000
     12969       113  CHL1      H7A            10.2113864153      -10.2631464673      -13.1881500000  MEMB      113             0.0000000000
     12970       113  CHL1      H7B             8.4746617820      -10.5068793040      -13.5507500000  MEMB      113             0.0000000000
     12971       113  CHL1      C8              9.4493205294      -12.1164591727      -12.5844700000  MEMB      113             0.0000000000
     12972       113  CHL1      H8             10.5000166163      -12.4065932056      -12.3695700000  MEMB      113             0.0000000000
     12973       113  CHL1      C14             8.9448232722      -11.6377929816      -11.1813300000  MEMB      113             0.0000000000
     12974       113  CHL1      H14             7.9202830472      -11.2520573101      -11.3706300000  MEMB      113             0.0000000000
     12975       113  CHL1      C15             9.7281626935      -10.4633891281      -10.5683400000  MEMB      113             0.0000000000
     12976       113  CHL1      H15A           10.7566234115      -10.8787629073      -10.5047800000  MEMB      113             0.0000000000
     12977       113  CHL1      H15B            9.6690955660       -9.5064791960      -11.1297300000  MEMB      113             0.0000000000
     12978       113  CHL1      C16             9.0038699945      -10.3850410692       -9.1738500000  MEMB      113             0.0000000000
     12979       113  CHL1      H16A            9.7386113932      -10.0740712667       -8.4006900000  MEMB      113             0.0000000000
     12980       113  CHL1      H16B            8.1132755846       -9.7338307203       -9.3046200000  MEMB      113             0.0000000000
     12981       113  CHL1      C17             8.4675792398      -11.7935052918       -8.9456500000  MEMB      113             0.0000000000
     12982       113  CHL1      H17             7.3795161140      -11.7102507246       -9.1542000000  MEMB      113             0.0000000000
     12983       113  CHL1      C13             8.8904436216      -12.6820213620      -10.1064200000  MEMB      113             0.0000000000
     12984       113  CHL1      C18            10.3480914424      -13.2850287495       -9.7252200000  MEMB      113             0.0000000000
     12985       113  CHL1      H18A           10.2369935455      -14.0417899857       -8.9194400000  MEMB      113             0.0000000000
     12986       113  CHL1      H18B           10.7979627112      -13.7504984032      -10.6281500000  MEMB      113             0.0000000000
     12987       113  CHL1      H18C           10.9600978775      -12.4855046934       -9.2556300000  MEMB      113             0.0000000000
     12988       113  CHL1      C12             7.9444641492      -13.8415140870      -10.5670900000  MEMB      113             0.0000000000
     12989       113  CHL1      H12A            7.8725467890      -14.5994962846       -9.7580100000  MEMB      113             0.0000000000
     12990       113  CHL1      H12B            6.9014126170      -13.5407492836      -10.8035300000  MEMB      113             0.0000000000
     12991       113  CHL1      C11             8.3847112312      -14.4428497980      -11.8812300000  MEMB      113             0.0000000000
     12992       113  CHL1      H11A            9.2364418346      -15.1006655949      -11.6053000000  MEMB      113             0.0000000000
     12993       113  CHL1      H11B            7.6173156060      -15.1275057288      -12.3015600000  MEMB      113             0.0000000000
     12994       113  CHL1      C9              8.6760838372      -13.3431381050      -13.0271900000  MEMB      113             0.0000000000
     12995       113  CHL1      H9              7.6807503776      -12.9564959818      -13.3340300000  MEMB      113             0.0000000000
     12996       113  CHL1      C10             9.3418203477      -13.9841531877      -14.3573500000  MEMB      113             0.0000000000
     12997       113  CHL1      C19            10.6397563163      -14.7950807338      -14.0053600000  MEMB      113             0.0000000000
     12998       113  CHL1      H19A           11.2948148068      -15.0773912237      -14.8571400000  MEMB      113             0.0000000000
     12999       113  CHL1      H19B           11.2993914553      -14.2746192566      -13.2785000000  MEMB      113             0.0000000000
     13000       113  CHL1      H19C           10.3508654369      -15.7868447194      -13.5963600000  MEMB      113             0.0000000000
     13001       113  CHL1      C1              8.2267950353      -14.7588166398      -15.0971300000  MEMB      113             0.0000000000
     13002       113  CHL1      H1A             7.9448640993      -15.5349281638      -14.3538300000  MEMB      113             0.0000000000
     13003       113  CHL1      H1B             7.3251010621      -14.1291699940      -15.2546200000  MEMB      113             0.0000000000
     13004       113  CHL1      C2              8.7169812539      -15.2207473066      -16.4451700000  MEMB      113             0.0000000000
     13005       113  CHL1      H2A             8.0119376969      -15.8748829476      -17.0013500000  MEMB      113             0.0000000000
     13006       113  CHL1      H2B             9.6268645000      -15.8450698647      -16.3160600000  MEMB      113             0.0000000000
     13007       113  CHL1      C20             8.5977196061      -12.2560911087       -7.4642800000  MEMB      113             0.0000000000
     13008       113  CHL1      H20             9.6848498067      -12.3661449753       -7.2633900000  MEMB      113             0.0000000000
     13009       113  CHL1      C21             7.8496506262      -13.5999247151       -7.2817600000  MEMB      113             0.0000000000
     13010       113  CHL1      H21A            8.3852790728      -14.4656435265       -7.7266900000  MEMB      113             0.0000000000
     13011       113  CHL1      H21B            7.0307894330      -13.4832445300       -8.0234900000  MEMB      113             0.0000000000
     13012       113  CHL1      H21C            7.4613045608      -13.8392188203       -6.2687200000  MEMB      113             0.0000000000
     13013       113  CHL1      C22             8.1608346566      -11.2020811549       -6.4210600000  MEMB      113             0.0000000000
     13014       113  CHL1      H22A            8.5493639906      -10.1838852777       -6.6370200000  MEMB      113             0.0000000000
     13015       113  CHL1      H22B            7.0501641922      -11.2205166729       -6.4009300000  MEMB      113             0.0000000000
     13016       113  CHL1      C23             8.8111058388      -11.5173416703       -5.0804100000  MEMB      113             0.0000000000
     13017       113  CHL1      H23A            8.2558459643      -12.3830621693       -4.6602300000  MEMB      113             0.0000000000
     13018       113  CHL1      H23B            9.8858349400      -11.7470921398       -5.2432000000  MEMB      113             0.0000000000
     13019       113  CHL1      C24             8.6574708705      -10.4151016288       -3.9017900000  MEMB      113             0.0000000000
     13020       113  CHL1      H24A            9.1942935287       -9.5193104205       -4.2808600000  MEMB      113             0.0000000000
     13021       113  CHL1      H24B            7.6684710817       -9.9109080164       -3.8571000000  MEMB      113             0.0000000000
     13022       113  CHL1      C25             9.2741856249      -10.8673098421       -2.5867200000  MEMB      113             0.0000000000
     13023       113  CHL1      H25             8.6146745312      -11.7048716428       -2.2739100000  MEMB      113             0.0000000000
     13024       113  CHL1      C26            10.7690473420      -11.2572013669       -2.6599900000  MEMB      113             0.0000000000
     13025       113  CHL1      H26A           11.1426646918      -11.6096493198       -1.6748500000  MEMB      113             0.0000000000
     13026       113  CHL1      H26B           10.9359385313      -12.0183147622       -3.4519400000  MEMB      113             0.0000000000
     13027       113  CHL1      H26C           11.4034970532      -10.4018637509       -2.9765200000  MEMB      113             0.0000000000
     13028       113  CHL1      C27             9.1994471245       -9.8217797420       -1.4827900000  MEMB      113             0.0000000000
     13029       113  CHL1      H27A            8.1963267131       -9.3499396289       -1.4089500000  MEMB      113             0.0000000000
     13030       113  CHL1      H27B            9.1528851348      -10.3699464349       -0.5175600000  MEMB      113             0.0000000000
     13031       113  CHL1      H27C            9.9511876797       -9.0063080779       -1.4178700000  MEMB      113             0.0000000000
     13032       114  SAPE      N              -3.5313052803       18.7638852748      -17.6260383896  MEMB      114             0.0000000000
     13033       114  SAPE      HN1            -3.7764373888       19.7742098472      -17.6535126676  MEMB      114             0.0000000000
     13034       114  SAPE      HN2            -3.5168016108       18.4470687564      -16.6355753994  MEMB      114             0.0000000000
     13035       114  SAPE      HN3            -2.5841720482       18.6350481523      -18.0358427599  MEMB      114             0.0000000000
     13036       114  SAPE      C12            -4.4693922264       17.9248013134      -18.3802539325  MEMB      114             0.0000000000
     13037       114  SAPE      H12A           -5.4972327127       18.0147062647      -17.9682076952  MEMB      114             0.0000000000
     13038       114  SAPE      H12B           -4.0111124754       16.9203713839      -18.2560721532  MEMB      114             0.0000000000
     13039       114  SAPE      C11            -4.3636756435       18.2873871703      -19.8754843132  MEMB      114             0.0000000000
     13040       114  SAPE      H11A           -4.7954866884       19.2901419810      -20.0812582132  MEMB      114             0.0000000000
     13041       114  SAPE      H11B           -4.9978716352       17.5345222114      -20.3905675778  MEMB      114             0.0000000000
     13042       114  SAPE      P              -2.3192526366       17.0823519131      -20.8905826562  MEMB      114             0.0000000000
     13043       114  SAPE      O13            -2.9081878948       16.8027989339      -22.1957203819  MEMB      114             0.0000000000
     13044       114  SAPE      O14            -0.8689206973       17.2571244350      -20.8602951958  MEMB      114             0.0000000000
     13045       114  SAPE      O12            -3.0089371190       18.3817187228      -20.3068043535  MEMB      114             0.0000000000
     13046       114  SAPE      O11            -2.6740713784       15.9295002283      -19.8648208140  MEMB      114             0.0000000000
     13047       114  SAPE      C1             -1.6845993564       15.2804283775      -19.1666194130  MEMB      114             0.0000000000
     13048       114  SAPE      HA             -1.0460239159       14.7986585777      -19.9376189311  MEMB      114             0.0000000000
     13049       114  SAPE      HB             -1.0984240329       15.9867451722      -18.5406512858  MEMB      114             0.0000000000
     13050       114  SAPE      C2             -2.2185236226       14.0715369856      -18.2105872726  MEMB      114             0.0000000000
     13051       114  SAPE      HS             -2.6539539590       13.3182262845      -18.9014160785  MEMB      114             0.0000000000
     13052       114  SAPE      O21            -3.2872261788       14.6402865216      -17.4217252986  MEMB      114             0.0000000000
     13053       114  SAPE      C21            -3.9548898949       13.6834427102      -16.7289921798  MEMB      114             0.0000000000
     13054       114  SAPE      O22            -3.6479257850       12.4835409136      -16.7092518377  MEMB      114             0.0000000000
     13055       114  SAPE      C22            -5.0170984663       14.3194299052      -15.7598127020  MEMB      114             0.0000000000
     13056       114  SAPE      H2R            -5.3529936398       15.3211414439      -16.1034252278  MEMB      114             0.0000000000
     13057       114  SAPE      H2S            -5.9906962183       13.7882015921      -15.8248107579  MEMB      114             0.0000000000
     13058       114  SAPE      C3             -1.0037657532       13.5648025427      -17.4274573010  MEMB      114             0.0000000000
     13059       114  SAPE      HX             -0.1668709626       13.2619359394      -18.0924383401  MEMB      114             0.0000000000
     13060       114  SAPE      HY             -1.2737522829       12.6974681329      -16.7878016853  MEMB      114             0.0000000000
     13061       114  SAPE      O31            -0.4995394059       14.6164075093      -16.6330789569  MEMB      114             0.0000000000
     13062       114  SAPE      C31            -0.7467131055       14.6690711692      -15.3039197882  MEMB      114             0.0000000000
     13063       114  SAPE      O32            -1.0594454666       13.7045747092      -14.6177805046  MEMB      114             0.0000000000
     13064       114  SAPE      C32            -0.3839058113       16.1189192902      -14.8239215156  MEMB      114             0.0000000000
     13065       114  SAPE      H2X            -1.3455964407       16.6118927303      -14.5661438683  MEMB      114             0.0000000000
     13066       114  SAPE      H2Y            -0.0302955721       16.8215395039      -15.6085272727  MEMB      114             0.0000000000
     13067       114  SAPE      C23            -4.5680201965       14.3057284429      -14.3242200195  MEMB      114             0.0000000000
     13068       114  SAPE      H3R            -3.5892108059       14.8263374537      -14.3964645485  MEMB      114             0.0000000000
     13069       114  SAPE      H3S            -4.3936879183       13.2708977060      -13.9594535393  MEMB      114             0.0000000000
     13070       114  SAPE      C24            -5.4399947273       14.9896595920      -13.2324072363  MEMB      114             0.0000000000
     13071       114  SAPE      H4R            -6.2857876246       14.3208122003      -12.9648288166  MEMB      114             0.0000000000
     13072       114  SAPE      H4S            -5.7446225210       16.0066924634      -13.5597708853  MEMB      114             0.0000000000
     13073       114  SAPE      C25            -4.5672934996       15.2494726062      -12.0076779831  MEMB      114             0.0000000000
     13074       114  SAPE      H5R            -3.4926337703       15.0155307812      -11.9882460154  MEMB      114             0.0000000000
     13075       114  SAPE      C26            -4.9903133271       15.8851180649      -10.9337440695  MEMB      114             0.0000000000
     13076       114  SAPE      H6R            -4.2935711700       16.1056044952      -10.1115910324  MEMB      114             0.0000000000
     13077       114  SAPE      C27            -6.3952656248       16.4925218875      -10.7304295006  MEMB      114             0.0000000000
     13078       114  SAPE      H7R            -6.7326065967       16.4635936572       -9.6722779882  MEMB      114             0.0000000000
     13079       114  SAPE      H7S            -7.1117105862       15.8835783217      -11.3222197314  MEMB      114             0.0000000000
     13080       114  SAPE      C28            -6.2830440115       17.9305709436      -11.1758920308  MEMB      114             0.0000000000
     13081       114  SAPE      H8R            -6.5125120632       18.1569048623      -12.2276130590  MEMB      114             0.0000000000
     13082       114  SAPE      C29            -6.0645551807       19.0087489507      -10.4226569279  MEMB      114             0.0000000000
     13083       114  SAPE      H9R            -6.0204963977       20.0004410492      -10.8965836263  MEMB      114             0.0000000000
     13084       114  SAPE      C210           -5.8913611277       18.9105193617       -8.9293814745  MEMB      114             0.0000000000
     13085       114  SAPE      H10R           -5.0912219369       18.2040442015       -8.6211751570  MEMB      114             0.0000000000
     13086       114  SAPE      H10S           -6.8126932694       18.5038107846       -8.4602791095  MEMB      114             0.0000000000
     13087       114  SAPE      C211           -5.6157969444       20.3163372301       -8.3164690669  MEMB      114             0.0000000000
     13088       114  SAPE      H11R           -6.1809407011       21.1403128479       -8.7765525731  MEMB      114             0.0000000000
     13089       114  SAPE      C212           -4.9505491894       20.5705314918       -7.1550226190  MEMB      114             0.0000000000
     13090       114  SAPE      H12R           -4.7479546834       21.6252717217       -6.9173695589  MEMB      114             0.0000000000
     13091       114  SAPE      C213           -4.3007685182       19.6434497232       -6.1540027656  MEMB      114             0.0000000000
     13092       114  SAPE      H13R           -3.8642181082       18.7176440452       -6.5860082309  MEMB      114             0.0000000000
     13093       114  SAPE      H13S           -5.1066027150       19.2124115893       -5.5222125101  MEMB      114             0.0000000000
     13094       114  SAPE      C214           -3.3272362288       20.1987643427       -5.1738187255  MEMB      114             0.0000000000
     13095       114  SAPE      H14R           -3.2894259210       21.2978460104       -5.1981198799  MEMB      114             0.0000000000
     13096       114  SAPE      C215           -2.5640397545       19.5894064301       -4.2063709445  MEMB      114             0.0000000000
     13097       114  SAPE      H15R           -1.8977274713       20.2397466857       -3.6206357386  MEMB      114             0.0000000000
     13098       114  SAPE      C216           -2.5108993833       18.0953716749       -3.9032374091  MEMB      114             0.0000000000
     13099       114  SAPE      H16R           -3.1764611172       17.6638719726       -4.6811556889  MEMB      114             0.0000000000
     13100       114  SAPE      H16S           -2.7382405560       17.8433466666       -2.8453527408  MEMB      114             0.0000000000
     13101       114  SAPE      C217           -0.9416981965       17.7420694298       -4.2516718250  MEMB      114             0.0000000000
     13102       114  SAPE      H17R           -0.3857288746       18.3491223206       -3.5055443790  MEMB      114             0.0000000000
     13103       114  SAPE      H17S           -0.8452932094       18.0958246336       -5.3004254139  MEMB      114             0.0000000000
     13104       114  SAPE      C218           -0.6097261574       16.2505594303       -4.1672570704  MEMB      114             0.0000000000
     13105       114  SAPE      H18R            0.2803691283       15.8481357467       -4.6965073308  MEMB      114             0.0000000000
     13106       114  SAPE      H18S           -1.4523718315       15.7101747325       -4.6491836496  MEMB      114             0.0000000000
     13107       114  SAPE      C219           -0.5061912515       15.6799299749       -2.7248974260  MEMB      114             0.0000000000
     13108       114  SAPE      H19R           -1.4834944190       15.6838350839       -2.1965183660  MEMB      114             0.0000000000
     13109       114  SAPE      H19S            0.2728004631       16.2573565384       -2.1826131740  MEMB      114             0.0000000000
     13110       114  SAPE      C220            0.0395971591       14.2452787819       -2.7421308134  MEMB      114             0.0000000000
     13111       114  SAPE      H20R           -0.1598064071       13.6453463814       -1.8285460756  MEMB      114             0.0000000000
     13112       114  SAPE      H20S            1.1330915695       14.2552712934       -2.9383243166  MEMB      114             0.0000000000
     13113       114  SAPE      H20T           -0.4993794531       13.5844046253       -3.4542203544  MEMB      114             0.0000000000
     13114       114  SAPE      C33             0.5158364168       16.2631168842      -13.6107564749  MEMB      114             0.0000000000
     13115       114  SAPE      H3X             1.4049733705       15.6285477446      -13.8134358819  MEMB      114             0.0000000000
     13116       114  SAPE      H3Y            -0.0106620628       15.8884228579      -12.7070283688  MEMB      114             0.0000000000
     13117       114  SAPE      C34             1.0343051637       17.7030279931      -13.3307540135  MEMB      114             0.0000000000
     13118       114  SAPE      H4X             1.5980758741       18.0256282225      -14.2320933586  MEMB      114             0.0000000000
     13119       114  SAPE      H4Y             1.7447014893       17.6351784527      -12.4792521484  MEMB      114             0.0000000000
     13120       114  SAPE      C35            -0.0749983365       18.8134269484      -13.0778684877  MEMB      114             0.0000000000
     13121       114  SAPE      H5X            -0.8075133068       18.8351550320      -13.9128959703  MEMB      114             0.0000000000
     13122       114  SAPE      H5Y             0.3341176791       19.8414311868      -13.1786272175  MEMB      114             0.0000000000
     13123       114  SAPE      C36            -0.9472764912       18.5900861803      -11.8201711295  MEMB      114             0.0000000000
     13124       114  SAPE      H6X            -1.0060089848       17.5085536970      -11.5728670886  MEMB      114             0.0000000000
     13125       114  SAPE      H6Y            -1.9864999481       18.8101912215      -12.1455774356  MEMB      114             0.0000000000
     13126       114  SAPE      C37            -0.6300470781       19.3527764437      -10.4417423897  MEMB      114             0.0000000000
     13127       114  SAPE      H7X            -0.7240054720       20.4175240886      -10.7447371122  MEMB      114             0.0000000000
     13128       114  SAPE      H7Y             0.4074392296       19.2607834303      -10.0551161378  MEMB      114             0.0000000000
     13129       114  SAPE      C38            -1.4948277647       19.1149509427       -9.1795664161  MEMB      114             0.0000000000
     13130       114  SAPE      H8X            -2.4422656981       19.6603977046       -9.3774809891  MEMB      114             0.0000000000
     13131       114  SAPE      H8Y            -1.0569270377       19.5489339959       -8.2553248538  MEMB      114             0.0000000000
     13132       114  SAPE      C39            -1.8395250999       17.6143294445       -8.8756947358  MEMB      114             0.0000000000
     13133       114  SAPE      H9X            -2.2106242504       17.1401964234       -9.8093989050  MEMB      114             0.0000000000
     13134       114  SAPE      H9Y            -2.5646117373       17.6215410569       -8.0339591617  MEMB      114             0.0000000000
     13135       114  SAPE      C310           -0.7312241386       16.7273834369       -8.3414951340  MEMB      114             0.0000000000
     13136       114  SAPE      H10X           -0.4564802990       17.2461939493       -7.3982709565  MEMB      114             0.0000000000
     13137       114  SAPE      H10Y            0.0742838424       16.7382874581       -9.1065829290  MEMB      114             0.0000000000
     13138       114  SAPE      C311           -1.2972607906       15.3634677020       -8.1545680255  MEMB      114             0.0000000000
     13139       114  SAPE      H11X           -0.5225494277       14.7422018709       -7.6563988633  MEMB      114             0.0000000000
     13140       114  SAPE      H11Y           -1.6099599227       14.8679054686       -9.0984735404  MEMB      114             0.0000000000
     13141       114  SAPE      C312           -2.5449205549       15.2327557107       -7.2326843853  MEMB      114             0.0000000000
     13142       114  SAPE      H12X           -3.4588245335       15.5917498114       -7.7525146851  MEMB      114             0.0000000000
     13143       114  SAPE      H12Y           -2.4565810800       15.9666611522       -6.4032870320  MEMB      114             0.0000000000
     13144       114  SAPE      C313           -2.9608470692       13.8279712379       -6.8644664080  MEMB      114             0.0000000000
     13145       114  SAPE      H13X           -2.5888865017       13.3911419432       -5.9130746891  MEMB      114             0.0000000000
     13146       114  SAPE      H13Y           -2.7190935324       13.1827264916       -7.7359794974  MEMB      114             0.0000000000
     13147       114  SAPE      C314           -4.5559756945       13.7187832600       -6.9332702051  MEMB      114             0.0000000000
     13148       114  SAPE      H14X           -4.8022398664       12.6456444765       -6.7847839385  MEMB      114             0.0000000000
     13149       114  SAPE      H14Y           -4.9966679541       14.0660244731       -7.8921938982  MEMB      114             0.0000000000
     13150       114  SAPE      C315           -5.2838615805       14.5869877587       -5.8960534298  MEMB      114             0.0000000000
     13151       114  SAPE      H15X           -6.3354407638       14.2334416977       -5.8368315724  MEMB      114             0.0000000000
     13152       114  SAPE      H15Y           -5.2763543179       15.6464385253       -6.2304620382  MEMB      114             0.0000000000
     13153       114  SAPE      C316           -4.7781261964       14.4439677036       -4.4489108126  MEMB      114             0.0000000000
     13154       114  SAPE      H16X           -3.7004312871       14.6917248698       -4.3416199183  MEMB      114             0.0000000000
     13155       114  SAPE      H16Y           -4.8389399567       13.3976112082       -4.0804533496  MEMB      114             0.0000000000
     13156       114  SAPE      C317           -5.4685755252       15.2274386389       -3.2841112218  MEMB      114             0.0000000000
     13157       114  SAPE      H17X           -6.4458120770       14.7459915974       -3.0660791354  MEMB      114             0.0000000000
     13158       114  SAPE      H17Y           -5.6094650612       16.3189595307       -3.4359446934  MEMB      114             0.0000000000
     13159       114  SAPE      C318           -4.6987045970       15.0740096092       -1.9226396280  MEMB      114             0.0000000000
     13160       114  SAPE      H18X           -4.8353032617       14.0227026574       -1.5903504222  MEMB      114             0.0000000000
     13161       114  SAPE      H18Y           -5.1769426113       15.6959439890       -1.1359966069  MEMB      114             0.0000000000
     13162       114  SAPE      H18Z           -3.6129401610       15.2952103706       -2.0033031680  MEMB      114             0.0000000000
     13163       115  OSM       N              15.0795141726       -6.9189016206      -20.1733241246  MEMB      115             0.0000000000
     13164       115  OSM       C15            15.0649972337       -6.6966964123      -21.6332958375  MEMB      115             0.0000000000
     13165       115  OSM       H15A           14.1415853760       -6.3746914420      -22.0915786965  MEMB      115             0.0000000000
     13166       115  OSM       H15B           15.5395509196       -7.4599393403      -22.2321773471  MEMB      115             0.0000000000
     13167       115  OSM       H15C           15.6623781533       -5.8160056054      -21.8174686547  MEMB      115             0.0000000000
     13168       115  OSM       C14            16.4679217298       -6.9291514786      -19.5909492448  MEMB      115             0.0000000000
     13169       115  OSM       H14A           16.4426376245       -7.1610064921      -18.5364333225  MEMB      115             0.0000000000
     13170       115  OSM       H14B           16.9085220671       -5.9804562127      -19.8597405478  MEMB      115             0.0000000000
     13171       115  OSM       H14C           17.0603954783       -7.7420910888      -19.9840193006  MEMB      115             0.0000000000
     13172       115  OSM       C13            14.3354832558       -5.8027931398      -19.5032176243  MEMB      115             0.0000000000
     13173       115  OSM       H13A           15.0099505786       -4.9682035327      -19.6255040588  MEMB      115             0.0000000000
     13174       115  OSM       H13B           14.1939473287       -6.1028711547      -18.4754428947  MEMB      115             0.0000000000
     13175       115  OSM       H13C           13.3280023373       -5.6159705346      -19.8445086747  MEMB      115             0.0000000000
     13176       115  OSM       C12            14.2961986414       -8.2351505164      -19.9736511005  MEMB      115             0.0000000000
     13177       115  OSM       H12A           13.2744344773       -7.9326715842      -20.1494480282  MEMB      115             0.0000000000
     13178       115  OSM       H12B           14.2439495838       -8.3420293035      -18.9002233165  MEMB      115             0.0000000000
     13179       115  OSM       C11            14.6002598902       -9.4199824961      -20.9458092099  MEMB      115             0.0000000000
     13180       115  OSM       H11A           14.1725317832       -9.1810446392      -21.9429443088  MEMB      115             0.0000000000
     13181       115  OSM       H11B           14.0374431177      -10.3277148264      -20.6398999753  MEMB      115             0.0000000000
     13182       115  OSM       P              16.5148166396      -10.8679157261      -21.8999774798  MEMB      115             0.0000000000
     13183       115  OSM       O13            15.7110521424      -11.0390985886      -23.1806935949  MEMB      115             0.0000000000
     13184       115  OSM       O14            17.9139432316      -10.5795283528      -22.1931302314  MEMB      115             0.0000000000
     13185       115  OSM       O11            16.4344278214      -12.0710231209      -20.8837687491  MEMB      115             0.0000000000
     13186       115  OSM       O12            15.9858493369       -9.7067844342      -21.0221827828  MEMB      115             0.0000000000
     13187       115  OSM       C1S            16.9882791679      -11.9533665725      -19.5161273961  MEMB      115             0.0000000000
     13188       115  OSM       H1S            17.9566976979      -11.4102851073      -19.4767693216  MEMB      115             0.0000000000
     13189       115  OSM       H1T            17.1732239627      -13.0147104627      -19.2447143241  MEMB      115             0.0000000000
     13190       115  OSM       NF             16.8745459140      -11.1254196614      -17.2043583783  MEMB      115             0.0000000000
     13191       115  OSM       HNF            16.7851990780      -11.7736610750      -16.4521556318  MEMB      115             0.0000000000
     13192       115  OSM       C2S            16.0904664374      -11.2754655144      -18.3754699041  MEMB      115             0.0000000000
     13193       115  OSM       H2S            15.7654568477      -10.2608261659      -18.6904250552  MEMB      115             0.0000000000
     13194       115  OSM       C3S            14.8860121023      -12.1267133358      -18.1339014775  MEMB      115             0.0000000000
     13195       115  OSM       H3S            15.2366106589      -13.0657894286      -17.6548002919  MEMB      115             0.0000000000
     13196       115  OSM       O3             14.1219150343      -12.4090775689      -19.3674179850  MEMB      115             0.0000000000
     13197       115  OSM       HO3            14.6276010289      -12.1001303032      -20.1226882882  MEMB      115             0.0000000000
     13198       115  OSM       C4S            13.9154281395      -11.4956569079      -17.0692307524  MEMB      115             0.0000000000
     13199       115  OSM       H4S            13.8308355568      -10.4034111331      -17.1684435225  MEMB      115             0.0000000000
     13200       115  OSM       C5S            13.1978580433      -12.0715913886      -16.0847456673  MEMB      115             0.0000000000
     13201       115  OSM       H5S            13.2259332881      -13.1687776022      -16.0113012573  MEMB      115             0.0000000000
     13202       115  OSM       C6S            12.2792414752      -11.4008337332      -15.1021803358  MEMB      115             0.0000000000
     13203       115  OSM       H6S            11.2673223051      -11.8556254874      -15.1613834159  MEMB      115             0.0000000000
     13204       115  OSM       H6T            12.2343531571      -10.2907542320      -15.1076342253  MEMB      115             0.0000000000
     13205       115  OSM       C7S            12.7448281137      -11.6541357773      -13.5259706241  MEMB      115             0.0000000000
     13206       115  OSM       H7S            12.7152688847      -12.7457463022      -13.3214377537  MEMB      115             0.0000000000
     13207       115  OSM       H7T            11.8578803787      -11.2660568162      -12.9809574563  MEMB      115             0.0000000000
     13208       115  OSM       C8S            13.9923719314      -10.8823079072      -13.2128569025  MEMB      115             0.0000000000
     13209       115  OSM       H8S            13.8477863780       -9.8260412636      -13.5254536105  MEMB      115             0.0000000000
     13210       115  OSM       H8T            14.8924948505      -11.1505032437      -13.8062968595  MEMB      115             0.0000000000
     13211       115  OSM       C9S            14.4976448388      -10.8780360079      -11.6994574802  MEMB      115             0.0000000000
     13212       115  OSM       H9S            14.8529913510      -11.9144866413      -11.5155558057  MEMB      115             0.0000000000
     13213       115  OSM       H9T            13.6875455112      -10.6021150022      -10.9909889336  MEMB      115             0.0000000000
     13214       115  OSM       C10S           15.7879411029      -10.1077794089      -11.4087176586  MEMB      115             0.0000000000
     13215       115  OSM       H10S           15.7151037668       -9.0198555464      -11.6218779380  MEMB      115             0.0000000000
     13216       115  OSM       H10T           16.5297544152      -10.4930605899      -12.1405598393  MEMB      115             0.0000000000
     13217       115  OSM       C11S           16.2429629831      -10.2839366108       -9.9539531049  MEMB      115             0.0000000000
     13218       115  OSM       H11S           16.1562801140      -11.3707330209       -9.7402221726  MEMB      115             0.0000000000
     13219       115  OSM       H11T           15.3775251234       -9.8775225229       -9.3881205057  MEMB      115             0.0000000000
     13220       115  OSM       C12S           17.5738477458       -9.6636272085       -9.6444503656  MEMB      115             0.0000000000
     13221       115  OSM       H12S           17.3731066657       -8.5870790593       -9.4571855503  MEMB      115             0.0000000000
     13222       115  OSM       H12T           18.2319750474       -9.7692243484      -10.5332911696  MEMB      115             0.0000000000
     13223       115  OSM       C13S           18.2199943112      -10.3109783535       -8.3369995605  MEMB      115             0.0000000000
     13224       115  OSM       H13S           18.3439983362      -11.3959358851       -8.5414774003  MEMB      115             0.0000000000
     13225       115  OSM       H13T           17.4466595347      -10.2897072635       -7.5396156439  MEMB      115             0.0000000000
     13226       115  OSM       C14S           19.4657347793       -9.6636878595       -7.8174423923  MEMB      115             0.0000000000
     13227       115  OSM       H14S           19.3575569339       -8.5893004953       -7.5560793719  MEMB      115             0.0000000000
     13228       115  OSM       H14T           20.3371712076       -9.7017068413       -8.5055363349  MEMB      115             0.0000000000
     13229       115  OSM       C15S           19.9641475206      -10.2325093874       -6.5038145210  MEMB      115             0.0000000000
     13230       115  OSM       H15S           20.9822867603       -9.8466215481       -6.2828973687  MEMB      115             0.0000000000
     13231       115  OSM       H15T           20.2422610417      -11.2987833186       -6.6453541529  MEMB      115             0.0000000000
     13232       115  OSM       C16S           19.0908598228      -10.0452579510       -5.1933156934  MEMB      115             0.0000000000
     13233       115  OSM       H16S           18.0988315336      -10.5265115844       -5.3296827876  MEMB      115             0.0000000000
     13234       115  OSM       H16T           19.1043872063       -8.9377352209       -5.1065324718  MEMB      115             0.0000000000
     13235       115  OSM       C17S           19.7242277638      -10.7138140539       -3.9558599305  MEMB      115             0.0000000000
     13236       115  OSM       H17S           20.5631759402      -10.0778824320       -3.6007837005  MEMB      115             0.0000000000
     13237       115  OSM       H17T           20.0881182486      -11.7154461728       -4.2699265565  MEMB      115             0.0000000000
     13238       115  OSM       C18S           18.7548355761      -10.8613399644       -2.8239453022  MEMB      115             0.0000000000
     13239       115  OSM       H18S           17.9503786561      -11.5619227416       -3.1343544975  MEMB      115             0.0000000000
     13240       115  OSM       H18T           18.3472576884       -9.8762252527       -2.5112943319  MEMB      115             0.0000000000
     13241       115  OSM       H18U           19.3624448134      -11.2413274889       -1.9749793356  MEMB      115             0.0000000000
     13242       115  OSM       C1F            17.7737045147      -10.1335071618      -17.1107916066  MEMB      115             0.0000000000
     13243       115  OSM       OF             17.9456873907       -9.2844932603      -17.9454118958  MEMB      115             0.0000000000
     13244       115  OSM       C2F            18.4909337509       -9.9516014828      -15.7525417496  MEMB      115             0.0000000000
     13245       115  OSM       H2F            19.4503524293       -9.3963330166      -15.8267971902  MEMB      115             0.0000000000
     13246       115  OSM       H2G            18.7200268570      -10.9475343117      -15.3167034161  MEMB      115             0.0000000000
     13247       115  OSM       C3F            17.5261982238       -9.2529001925      -14.7839527706  MEMB      115             0.0000000000
     13248       115  OSM       H3F            17.9630463919       -9.1628038192      -13.7664228526  MEMB      115             0.0000000000
     13249       115  OSM       H3G            16.5370999743       -9.7526362225      -14.7047728673  MEMB      115             0.0000000000
     13250       115  OSM       C4F            17.2016692432       -7.7663423192      -15.1295419873  MEMB      115             0.0000000000
     13251       115  OSM       H4F            16.4781055565       -7.7316531691      -15.9719037498  MEMB      115             0.0000000000
     13252       115  OSM       H4G            18.1658634331       -7.3161860008      -15.4489315052  MEMB      115             0.0000000000
     13253       115  OSM       C5F            16.5458200924       -6.8594550453      -14.0822817418  MEMB      115             0.0000000000
     13254       115  OSM       H5F            16.7211993124       -5.8256653941      -14.4494907937  MEMB      115             0.0000000000
     13255       115  OSM       H5G            17.0766383409       -6.9734430082      -13.1129731786  MEMB      115             0.0000000000
     13256       115  OSM       C6F            15.0827157466       -7.0182058201      -13.8323775222  MEMB      115             0.0000000000
     13257       115  OSM       H6F            14.9771824359       -7.9818788352      -13.2896827344  MEMB      115             0.0000000000
     13258       115  OSM       H6G            14.5664328829       -7.1563968745      -14.8063777361  MEMB      115             0.0000000000
     13259       115  OSM       C7F            14.4167552900       -5.9062400939      -13.0036251085  MEMB      115             0.0000000000
     13260       115  OSM       H7F            14.3405631371       -4.9112660025      -13.4920330622  MEMB      115             0.0000000000
     13261       115  OSM       H7G            14.9778987660       -5.7738946718      -12.0539287090  MEMB      115             0.0000000000
     13262       115  OSM       C8F            12.9094032101       -6.2723299004      -12.6999083145  MEMB      115             0.0000000000
     13263       115  OSM       H8F            12.5414671825       -6.3105676591      -13.7475162248  MEMB      115             0.0000000000
     13264       115  OSM       H8G            12.3818667713       -5.3840849442      -12.2911946927  MEMB      115             0.0000000000
     13265       115  OSM       C9F            12.5355119240       -7.6225922020      -12.0636464343  MEMB      115             0.0000000000
     13266       115  OSM       H9F            12.1282641755       -8.2396025845      -12.8781687182  MEMB      115             0.0000000000
     13267       115  OSM       C10F           12.5056143651       -7.9919539347      -10.7548722611  MEMB      115             0.0000000000
     13268       115  OSM       H10F           12.1992176767       -8.9910098782      -10.4113489726  MEMB      115             0.0000000000
     13269       115  OSM       C11F           12.9289024929       -7.0593587146       -9.6626461594  MEMB      115             0.0000000000
     13270       115  OSM       H11F           12.1027766614       -7.1306220807       -8.9232155539  MEMB      115             0.0000000000
     13271       115  OSM       H11G           12.8900755824       -6.0160171390      -10.0424522032  MEMB      115             0.0000000000
     13272       115  OSM       C12F           14.2836999861       -7.2795211804       -9.0086559093  MEMB      115             0.0000000000
     13273       115  OSM       H12F           15.0434134993       -6.9155486782       -9.7330041573  MEMB      115             0.0000000000
     13274       115  OSM       H12G           14.4499268189       -8.3144908159       -8.6405144797  MEMB      115             0.0000000000
     13275       115  OSM       C13F           14.4369661060       -6.4147878976       -7.6875132418  MEMB      115             0.0000000000
     13276       115  OSM       H13F           13.5368577701       -6.5517815558       -7.0508356519  MEMB      115             0.0000000000
     13277       115  OSM       H13G           14.5338865181       -5.3616106336       -8.0277267981  MEMB      115             0.0000000000
     13278       115  OSM       C14F           15.7763806026       -6.7114289327       -6.8818917707  MEMB      115             0.0000000000
     13279       115  OSM       H14F           16.6162072942       -6.6192866678       -7.6033635290  MEMB      115             0.0000000000
     13280       115  OSM       H14G           15.6889253660       -7.8065776742       -6.7165979847  MEMB      115             0.0000000000
     13281       115  OSM       C15F           15.8870338747       -5.8069653399       -5.6253596305  MEMB      115             0.0000000000
     13282       115  OSM       H15F           15.6822177086       -4.7515692448       -5.9055557541  MEMB      115             0.0000000000
     13283       115  OSM       H15G           16.8652527030       -6.0337062430       -5.1499676405  MEMB      115             0.0000000000
     13284       115  OSM       C16F           14.7838119980       -6.1387452967       -4.5657428866  MEMB      115             0.0000000000
     13285       115  OSM       H16F           13.7704472597       -5.9340690358       -4.9725843002  MEMB      115             0.0000000000
     13286       115  OSM       H16G           15.0360595095       -5.3720341323       -3.8022982050  MEMB      115             0.0000000000
     13287       115  OSM       C17F           14.9654344134       -7.5766260674       -3.9907343155  MEMB      115             0.0000000000
     13288       115  OSM       H17F           15.9026049039       -7.7464967435       -3.4187425319  MEMB      115             0.0000000000
     13289       115  OSM       H17G           14.9732768421       -8.3513200234       -4.7870446051  MEMB      115             0.0000000000
     13290       115  OSM       C18F           13.7709489015       -7.8318706409       -3.0927768200  MEMB      115             0.0000000000
     13291       115  OSM       H18F           13.9340595492       -8.8374058736       -2.6493650601  MEMB      115             0.0000000000
     13292       115  OSM       H18G           12.7927739168       -7.8749220971       -3.6177927684  MEMB      115             0.0000000000
     13293       115  OSM       H18H           13.7257848914       -7.0528465503       -2.3019532931  MEMB      115             0.0000000000
     13294       116  OSM       N              15.6786786009        7.6157283726      -22.5603863476  MEMB      116             0.0000000000
     13295       116  OSM       C15            15.8861532739        8.6073414053      -21.4508539467  MEMB      116             0.0000000000
     13296       116  OSM       H15A           15.0328661038        9.2693114883      -21.4410289155  MEMB      116             0.0000000000
     13297       116  OSM       H15B           16.7960916177        9.1609560746      -21.6295237321  MEMB      116             0.0000000000
     13298       116  OSM       H15C           16.0871158330        7.9978820974      -20.5821920930  MEMB      116             0.0000000000
     13299       116  OSM       C14            14.4773704261        6.7599976450      -22.3955709295  MEMB      116             0.0000000000
     13300       116  OSM       H14A           14.4490211126        6.3450815169      -21.3988559170  MEMB      116             0.0000000000
     13301       116  OSM       H14B           14.3825423797        6.0272526418      -23.1832843813  MEMB      116             0.0000000000
     13302       116  OSM       H14C           13.6445590283        7.4398222360      -22.4988367751  MEMB      116             0.0000000000
     13303       116  OSM       C13            15.6181483361        8.3321819896      -23.9344677336  MEMB      116             0.0000000000
     13304       116  OSM       H13A           14.8504589853        9.0869913436      -23.8489339820  MEMB      116             0.0000000000
     13305       116  OSM       H13B           15.3505733251        7.6830238937      -24.7550757420  MEMB      116             0.0000000000
     13306       116  OSM       H13C           16.4713524412        8.9205154554      -24.2382873736  MEMB      116             0.0000000000
     13307       116  OSM       C12            16.9350802624        6.7423456173      -22.7062920587  MEMB      116             0.0000000000
     13308       116  OSM       H12A           17.6628452422        7.5400634793      -22.7264029024  MEMB      116             0.0000000000
     13309       116  OSM       H12B           16.8397442131        6.3005904179      -23.6871912222  MEMB      116             0.0000000000
     13310       116  OSM       C11            17.2489643009        5.6032305105      -21.7638515555  MEMB      116             0.0000000000
     13311       116  OSM       H11A           18.2366438123        5.1357166405      -21.9644532529  MEMB      116             0.0000000000
     13312       116  OSM       H11B           16.5393475398        4.7561760509      -21.8790203531  MEMB      116             0.0000000000
     13313       116  OSM       P              17.9452448054        5.5742489978      -19.2615977893  MEMB      116             0.0000000000
     13314       116  OSM       O13            18.6702666438        4.3255629803      -19.6587219932  MEMB      116             0.0000000000
     13315       116  OSM       O14            18.6824294769        6.7532429628      -18.8380069742  MEMB      116             0.0000000000
     13316       116  OSM       O11            17.0485591622        5.1908405820      -18.0130724455  MEMB      116             0.0000000000
     13317       116  OSM       O12            16.9321516330        6.0570770480      -20.4171782290  MEMB      116             0.0000000000
     13318       116  OSM       C1S            15.7206215200        5.5759069849      -17.9306576206  MEMB      116             0.0000000000
     13319       116  OSM       H1S            15.0785182469        4.8551485587      -18.4806865507  MEMB      116             0.0000000000
     13320       116  OSM       H1T            15.5606444750        6.6135763025      -18.2939353974  MEMB      116             0.0000000000
     13321       116  OSM       NF             15.4873101059        6.4567885259      -15.5252268287  MEMB      116             0.0000000000
     13322       116  OSM       HNF            15.6399591309        6.0188272835      -14.6426755630  MEMB      116             0.0000000000
     13323       116  OSM       C2S            14.9687194796        5.5427698052      -16.5016736910  MEMB      116             0.0000000000
     13324       116  OSM       H2S            13.8874711075        5.7830916879      -16.5880939823  MEMB      116             0.0000000000
     13325       116  OSM       C3S            15.0281136633        4.0902281812      -16.0164133526  MEMB      116             0.0000000000
     13326       116  OSM       H3S            16.0411177025        3.6513379277      -16.1409897627  MEMB      116             0.0000000000
     13327       116  OSM       O3             14.2248540308        3.1515532718      -16.6115993529  MEMB      116             0.0000000000
     13328       116  OSM       HO3            13.7225677215        3.6486823919      -17.2613464840  MEMB      116             0.0000000000
     13329       116  OSM       C4S            14.7035851357        3.9759403774      -14.5234670114  MEMB      116             0.0000000000
     13330       116  OSM       H4S            13.7475758683        4.4832010413      -14.3266606815  MEMB      116             0.0000000000
     13331       116  OSM       C5S            15.3478360565        3.1135484342      -13.6966918505  MEMB      116             0.0000000000
     13332       116  OSM       H5S            16.1896789122        2.4872586214      -14.0269373581  MEMB      116             0.0000000000
     13333       116  OSM       C6S            14.9551529495        2.9905607047      -12.2275901846  MEMB      116             0.0000000000
     13334       116  OSM       H6S            15.9236825103        3.1554435335      -11.7088563843  MEMB      116             0.0000000000
     13335       116  OSM       H6T            14.7239893245        1.9493727776      -11.9164447626  MEMB      116             0.0000000000
     13336       116  OSM       C7S            14.0444493389        4.0022812765      -11.6472790435  MEMB      116             0.0000000000
     13337       116  OSM       H7S            13.0267819397        3.9535461740      -12.0903356196  MEMB      116             0.0000000000
     13338       116  OSM       H7T            14.3720757181        5.0566217172      -11.7711653719  MEMB      116             0.0000000000
     13339       116  OSM       C8S            13.8934990597        3.6648029528      -10.0986018909  MEMB      116             0.0000000000
     13340       116  OSM       H8S            13.4271797941        2.6583320193      -10.0362890818  MEMB      116             0.0000000000
     13341       116  OSM       H8T            13.1260656370        4.3945881136       -9.7627742828  MEMB      116             0.0000000000
     13342       116  OSM       C9S            15.1386516930        3.8360668130       -9.2980783462  MEMB      116             0.0000000000
     13343       116  OSM       H9S            15.9740889058        3.1542679861       -9.5655034759  MEMB      116             0.0000000000
     13344       116  OSM       H9T            14.8401330756        3.6924946918       -8.2376093135  MEMB      116             0.0000000000
     13345       116  OSM       C10S           15.7886310191        5.2783189278       -9.4059599386  MEMB      116             0.0000000000
     13346       116  OSM       H10S           15.0482631094        6.1039968765       -9.3393849142  MEMB      116             0.0000000000
     13347       116  OSM       H10T           16.3470801984        5.3974318692      -10.3589905636  MEMB      116             0.0000000000
     13348       116  OSM       C11S           16.9676962641        5.5801829885       -8.3949471836  MEMB      116             0.0000000000
     13349       116  OSM       H11S           17.4468818776        6.5484962499       -8.6539297878  MEMB      116             0.0000000000
     13350       116  OSM       H11T           17.6991522818        4.7579265314       -8.5472218485  MEMB      116             0.0000000000
     13351       116  OSM       C12S           16.4124747957        5.6528204539       -6.9644018880  MEMB      116             0.0000000000
     13352       116  OSM       H12S           16.1875736904        4.6347467307       -6.5806483918  MEMB      116             0.0000000000
     13353       116  OSM       H12T           15.3973722860        6.1040476424       -6.9811956921  MEMB      116             0.0000000000
     13354       116  OSM       C13S           17.3315273463        6.3839135715       -6.0567565559  MEMB      116             0.0000000000
     13355       116  OSM       H13S           16.7666525027        6.3710572789       -5.1001624406  MEMB      116             0.0000000000
     13356       116  OSM       H13T           17.5070333259        7.4255053075       -6.4011476572  MEMB      116             0.0000000000
     13357       116  OSM       C14S           18.7044022189        5.6824579328       -5.8715133880  MEMB      116             0.0000000000
     13358       116  OSM       H14S           19.2725767509        5.7962250678       -6.8194347525  MEMB      116             0.0000000000
     13359       116  OSM       H14T           18.6002864990        4.5808475817       -5.7718357465  MEMB      116             0.0000000000
     13360       116  OSM       C15S           19.5239951914        6.2425674707       -4.6949678104  MEMB      116             0.0000000000
     13361       116  OSM       H15S           19.4310389219        7.3351813340       -4.8735031885  MEMB      116             0.0000000000
     13362       116  OSM       H15T           20.6211574605        6.1059771889       -4.8040511195  MEMB      116             0.0000000000
     13363       116  OSM       C16S           18.9960761833        5.9521951556       -3.3225079320  MEMB      116             0.0000000000
     13364       116  OSM       H16S           19.5149469731        5.1600946012       -2.7414121776  MEMB      116             0.0000000000
     13365       116  OSM       H16T           17.9950301625        5.5452353659       -3.5805989228  MEMB      116             0.0000000000
     13366       116  OSM       C17S           19.0138855253        7.1916309759       -2.3318357703  MEMB      116             0.0000000000
     13367       116  OSM       H17S           18.4565730249        8.0099652632       -2.8358731492  MEMB      116             0.0000000000
     13368       116  OSM       H17T           20.0906237903        7.4653885815       -2.3354202755  MEMB      116             0.0000000000
     13369       116  OSM       C18S           18.6112207380        6.8947509638       -0.9502411940  MEMB      116             0.0000000000
     13370       116  OSM       H18S           17.5151882009        6.7467115009       -0.8448000824  MEMB      116             0.0000000000
     13371       116  OSM       H18T           18.8868504584        7.7458077645       -0.2914159512  MEMB      116             0.0000000000
     13372       116  OSM       H18U           19.0465643854        5.9274755734       -0.6198254721  MEMB      116             0.0000000000
     13373       116  OSM       C1F            15.5546255593        7.8054453291      -15.6177711789  MEMB      116             0.0000000000
     13374       116  OSM       OF             15.3442609564        8.4704706003      -16.6285560364  MEMB      116             0.0000000000
     13375       116  OSM       C2F            15.8411872335        8.4884254060      -14.3359764926  MEMB      116             0.0000000000
     13376       116  OSM       H2F            15.0360138707        9.2457071794      -14.2239907601  MEMB      116             0.0000000000
     13377       116  OSM       H2G            16.8301148154        8.9772818464      -14.4677447521  MEMB      116             0.0000000000
     13378       116  OSM       C3F            15.7741442242        7.6213479227      -13.0864515353  MEMB      116             0.0000000000
     13379       116  OSM       H3F            16.4673596702        6.7624673298      -13.2133268438  MEMB      116             0.0000000000
     13380       116  OSM       H3G            14.7110116220        7.3267602681      -12.9549671786  MEMB      116             0.0000000000
     13381       116  OSM       C4F            16.2620733535        8.4904265710      -11.8830265451  MEMB      116             0.0000000000
     13382       116  OSM       H4F            17.1742793805        9.1123326449      -12.0072588534  MEMB      116             0.0000000000
     13383       116  OSM       H4G            16.4659150138        7.7657234725      -11.0659736004  MEMB      116             0.0000000000
     13384       116  OSM       C5F            15.1187596196        9.2905687435      -11.2624330195  MEMB      116             0.0000000000
     13385       116  OSM       H5F            14.3617998915        8.5443466998      -10.9391896736  MEMB      116             0.0000000000
     13386       116  OSM       H5G            14.6407420452        9.9016953422      -12.0576335752  MEMB      116             0.0000000000
     13387       116  OSM       C6F            15.6191750982       10.1113344511      -10.0636983476  MEMB      116             0.0000000000
     13388       116  OSM       H6F            14.8946978733       10.9045081407       -9.7802736193  MEMB      116             0.0000000000
     13389       116  OSM       H6G            16.5460180308       10.6973402788      -10.2422482687  MEMB      116             0.0000000000
     13390       116  OSM       C7F            15.8649290373        9.3088476025       -8.8269380917  MEMB      116             0.0000000000
     13391       116  OSM       H7F            16.7214420415        8.6506418002       -9.0866904750  MEMB      116             0.0000000000
     13392       116  OSM       H7G            14.9819365424        8.7260333000       -8.4878609792  MEMB      116             0.0000000000
     13393       116  OSM       C8F            16.4023223960       10.2059769784       -7.7020380180  MEMB      116             0.0000000000
     13394       116  OSM       H8F            17.1014827731       10.9150005829       -8.1947672680  MEMB      116             0.0000000000
     13395       116  OSM       H8G            16.9909089659        9.6252504505       -6.9599851488  MEMB      116             0.0000000000
     13396       116  OSM       C9F            15.3713956894       11.0827743047       -7.0616653231  MEMB      116             0.0000000000
     13397       116  OSM       H9F            14.6350382400       11.5417139493       -7.7377956082  MEMB      116             0.0000000000
     13398       116  OSM       C10F           15.3315310800       11.4413271612       -5.7863987763  MEMB      116             0.0000000000
     13399       116  OSM       H10F           14.5158677280       12.0830304888       -5.4218314936  MEMB      116             0.0000000000
     13400       116  OSM       C11F           16.3556368084       11.0593281089       -4.7871605534  MEMB      116             0.0000000000
     13401       116  OSM       H11F           16.5421415452       11.9386231240       -4.1341844834  MEMB      116             0.0000000000
     13402       116  OSM       H11G           17.3194082655       10.7236439080       -5.2262298282  MEMB      116             0.0000000000
     13403       116  OSM       C12F           16.1670475115        9.8578728227       -3.7853309017  MEMB      116             0.0000000000
     13404       116  OSM       H12F           17.2104420928        9.6722879104       -3.4518548870  MEMB      116             0.0000000000
     13405       116  OSM       H12G           15.8587581716        8.9619589622       -4.3655177301  MEMB      116             0.0000000000
     13406       116  OSM       C13F           15.3200908749       10.2795309754       -2.6217401484  MEMB      116             0.0000000000
     13407       116  OSM       H13F           14.2945884639       10.3354517978       -3.0454590171  MEMB      116             0.0000000000
     13408       116  OSM       H13G           15.6672003152       11.2246164387       -2.1520063385  MEMB      116             0.0000000000
     13409       116  OSM       C14F           15.3214096325        9.1437146818       -1.4784834304  MEMB      116             0.0000000000
     13410       116  OSM       H14F           16.3944980517        9.0446795602       -1.2083091063  MEMB      116             0.0000000000
     13411       116  OSM       H14G           15.1139226967        8.2108609915       -2.0450996829  MEMB      116             0.0000000000
     13412       116  OSM       C15F           14.5085498267        9.4028086591       -0.2745008246  MEMB      116             0.0000000000
     13413       116  OSM       H15F           13.4207350912        9.4988716029       -0.4788331198  MEMB      116             0.0000000000
     13414       116  OSM       H15G           14.7712596046       10.2748562463        0.3617680022  MEMB      116             0.0000000000
     13415       116  OSM       C16F           14.6882059806        8.2409185310        0.7770539620  MEMB      116             0.0000000000
     13416       116  OSM       H16F           14.3233087564        8.4882319397        1.7968616737  MEMB      116             0.0000000000
     13417       116  OSM       H16G           15.7276632048        7.9303632200        1.0166485178  MEMB      116             0.0000000000
     13418       116  OSM       C17F           13.9290498546        7.0196029140        0.3402368639  MEMB      116             0.0000000000
     13419       116  OSM       H17F           13.9048910534        6.3054352010        1.1909438715  MEMB      116             0.0000000000
     13420       116  OSM       H17G           14.5907905043        6.5416244738       -0.4133928181  MEMB      116             0.0000000000
     13421       116  OSM       C18F           12.4249336659        7.1427433601       -0.1919732547  MEMB      116             0.0000000000
     13422       116  OSM       H18F           11.6162256637        7.1359234289        0.5697789858  MEMB      116             0.0000000000
     13423       116  OSM       H18G           12.2513861166        6.1991123055       -0.7521177592  MEMB      116             0.0000000000
     13424       116  OSM       H18H           12.3511743736        8.0031102939       -0.8910079235  MEMB      116             0.0000000000
     13425       117  OSM       N             -14.5550638857       -6.3440452330      -20.8060219641  MEMB      117             0.0000000000
     13426       117  OSM       C15           -14.1886960397       -6.8051543683      -22.2180239582  MEMB      117             0.0000000000
     13427       117  OSM       H15A          -13.1378910804       -7.0537578250      -22.2381506392  MEMB      117             0.0000000000
     13428       117  OSM       H15B          -14.4099442116       -6.0909636458      -22.9973704179  MEMB      117             0.0000000000
     13429       117  OSM       H15C          -14.7985364074       -7.6702561616      -22.4327186162  MEMB      117             0.0000000000
     13430       117  OSM       C14           -14.6921255978       -7.4403317370      -19.8102255316  MEMB      117             0.0000000000
     13431       117  OSM       H14A          -15.4787804771       -8.1393689544      -20.0529619139  MEMB      117             0.0000000000
     13432       117  OSM       H14B          -15.0387724280       -6.9512913031      -18.9118518283  MEMB      117             0.0000000000
     13433       117  OSM       H14C          -13.7179804478       -7.8662323308      -19.6203570467  MEMB      117             0.0000000000
     13434       117  OSM       C13           -13.5190209641       -5.2613836475      -20.4215258962  MEMB      117             0.0000000000
     13435       117  OSM       H13A          -12.5629745597       -5.7184532678      -20.6300035863  MEMB      117             0.0000000000
     13436       117  OSM       H13B          -13.6364975316       -5.0205810720      -19.3752880508  MEMB      117             0.0000000000
     13437       117  OSM       H13C          -13.5794738532       -4.4293893218      -21.1074787016  MEMB      117             0.0000000000
     13438       117  OSM       C12           -15.9446383193       -5.6205029818      -20.9401188257  MEMB      117             0.0000000000
     13439       117  OSM       H12A          -15.7559511298       -4.6052912224      -21.2565710850  MEMB      117             0.0000000000
     13440       117  OSM       H12B          -16.2549096868       -5.3604268651      -19.9388736012  MEMB      117             0.0000000000
     13441       117  OSM       C11           -17.1548798807       -6.2755265068      -21.6812737893  MEMB      117             0.0000000000
     13442       117  OSM       H11A          -16.9583325629       -6.1267893750      -22.7645869408  MEMB      117             0.0000000000
     13443       117  OSM       H11B          -18.0735957306       -5.6657189235      -21.5455649257  MEMB      117             0.0000000000
     13444       117  OSM       P             -18.7528775256       -8.2424395314      -21.0688868877  MEMB      117             0.0000000000
     13445       117  OSM       O13           -19.5143290554       -8.2147711567      -22.3578824938  MEMB      117             0.0000000000
     13446       117  OSM       O14           -18.5382637058       -9.5266840122      -20.3649324739  MEMB      117             0.0000000000
     13447       117  OSM       O11           -19.4403056314       -7.2524766133      -20.0000374777  MEMB      117             0.0000000000
     13448       117  OSM       O12           -17.3105662913       -7.6379226261      -21.3310707067  MEMB      117             0.0000000000
     13449       117  OSM       C1S           -18.6657249422       -6.7058508251      -18.9223956080  MEMB      117             0.0000000000
     13450       117  OSM       H1S           -18.6913470131       -5.5963969620      -18.9750890701  MEMB      117             0.0000000000
     13451       117  OSM       H1T           -17.6125023568       -7.0591400401      -18.9072312893  MEMB      117             0.0000000000
     13452       117  OSM       NF            -18.4134476063       -6.6660107458      -16.4842668005  MEMB      117             0.0000000000
     13453       117  OSM       HNF           -18.1306680967       -7.3281391458      -15.7946070769  MEMB      117             0.0000000000
     13454       117  OSM       C2S           -19.2599268727       -7.1523539206      -17.5257795564  MEMB      117             0.0000000000
     13455       117  OSM       H2S           -20.2285674624       -6.6211274436      -17.4080740924  MEMB      117             0.0000000000
     13456       117  OSM       C3S           -19.4156505148       -8.6911407059      -17.4183352153  MEMB      117             0.0000000000
     13457       117  OSM       H3S           -18.4443557924       -9.1871199004      -17.6302602670  MEMB      117             0.0000000000
     13458       117  OSM       O3            -20.4374488436       -9.1249011650      -18.2888327731  MEMB      117             0.0000000000
     13459       117  OSM       HO3           -20.6992777292       -8.3102266000      -18.7239777282  MEMB      117             0.0000000000
     13460       117  OSM       C4S           -19.8190931867       -9.0256649385      -16.0116333129  MEMB      117             0.0000000000
     13461       117  OSM       H4S           -20.7414044009       -8.6096991316      -15.5799914628  MEMB      117             0.0000000000
     13462       117  OSM       C5S           -19.2715145274      -10.0193843151      -15.2732624407  MEMB      117             0.0000000000
     13463       117  OSM       H5S           -18.3159490852      -10.4714546711      -15.5774445968  MEMB      117             0.0000000000
     13464       117  OSM       C6S           -19.7334619509      -10.3349547324      -13.8674260952  MEMB      117             0.0000000000
     13465       117  OSM       H6S           -19.1412801098      -11.1864921314      -13.4692731127  MEMB      117             0.0000000000
     13466       117  OSM       H6T           -20.8121697130      -10.5999232201      -13.8450072270  MEMB      117             0.0000000000
     13467       117  OSM       C7S           -19.3980979825       -9.2760748964      -12.7494634403  MEMB      117             0.0000000000
     13468       117  OSM       H7S           -20.0527045754       -8.3925727095      -12.9083192659  MEMB      117             0.0000000000
     13469       117  OSM       H7T           -18.3540776741       -8.9292496145      -12.9045603201  MEMB      117             0.0000000000
     13470       117  OSM       C8S           -19.7351741782       -9.7789898530      -11.2948731452  MEMB      117             0.0000000000
     13471       117  OSM       H8S           -19.3292323291      -10.8116275922      -11.2383791866  MEMB      117             0.0000000000
     13472       117  OSM       H8T           -20.8385121929       -9.8746370699      -11.2064556951  MEMB      117             0.0000000000
     13473       117  OSM       C9S           -19.1062187085       -8.8145516267      -10.2345234836  MEMB      117             0.0000000000
     13474       117  OSM       H9S           -19.5800985630       -7.8103076255      -10.1991272674  MEMB      117             0.0000000000
     13475       117  OSM       H9T           -18.0646434840       -8.5706852088      -10.5344763657  MEMB      117             0.0000000000
     13476       117  OSM       C10S          -19.2510327300       -9.4118010006       -8.8025025365  MEMB      117             0.0000000000
     13477       117  OSM       H10S          -18.6920953094      -10.3717697181       -8.7832656832  MEMB      117             0.0000000000
     13478       117  OSM       H10T          -20.3251573452       -9.5634688089       -8.5625555623  MEMB      117             0.0000000000
     13479       117  OSM       C11S          -18.4470022133       -8.6339399460       -7.7234648715  MEMB      117             0.0000000000
     13480       117  OSM       H11S          -17.4834572820       -8.3279004087       -8.1841618378  MEMB      117             0.0000000000
     13481       117  OSM       H11T          -18.1786553537       -9.4844777613       -7.0609723664  MEMB      117             0.0000000000
     13482       117  OSM       C12S          -19.1548772785       -7.5099840123       -6.9171283889  MEMB      117             0.0000000000
     13483       117  OSM       H12S          -20.1048780199       -7.9437569849       -6.5381019774  MEMB      117             0.0000000000
     13484       117  OSM       H12T          -19.5816309173       -6.7570087861       -7.6137130800  MEMB      117             0.0000000000
     13485       117  OSM       C13S          -18.3161432167       -6.8677245615       -5.8144935716  MEMB      117             0.0000000000
     13486       117  OSM       H13S          -17.9360435554       -5.8889948909       -6.1777207422  MEMB      117             0.0000000000
     13487       117  OSM       H13T          -17.3840245001       -7.4480938489       -5.6452390965  MEMB      117             0.0000000000
     13488       117  OSM       C14S          -19.0716637909       -6.7614651076       -4.4906454664  MEMB      117             0.0000000000
     13489       117  OSM       H14S          -19.3397353024       -7.7489431143       -4.0578094970  MEMB      117             0.0000000000
     13490       117  OSM       H14T          -20.0248522688       -6.1940398285       -4.5521372724  MEMB      117             0.0000000000
     13491       117  OSM       C15S          -18.2411940913       -6.0036197449       -3.3754352876  MEMB      117             0.0000000000
     13492       117  OSM       H15S          -18.0749084004       -4.9128388199       -3.5053089491  MEMB      117             0.0000000000
     13493       117  OSM       H15T          -17.2729968346       -6.5151220639       -3.1876051404  MEMB      117             0.0000000000
     13494       117  OSM       C16S          -19.0195599430       -5.9890914656       -1.9533570080  MEMB      117             0.0000000000
     13495       117  OSM       H16S          -19.5341965565       -6.9609098737       -1.7951196978  MEMB      117             0.0000000000
     13496       117  OSM       H16T          -19.7808610141       -5.1811542680       -1.9978471655  MEMB      117             0.0000000000
     13497       117  OSM       C17S          -18.1319354515       -5.6691263114       -0.7087260951  MEMB      117             0.0000000000
     13498       117  OSM       H17S          -17.5646694591       -4.7504635739       -0.9706217015  MEMB      117             0.0000000000
     13499       117  OSM       H17T          -17.3940728547       -6.4411478788       -0.4023557803  MEMB      117             0.0000000000
     13500       117  OSM       C18S          -18.9975521060       -5.4834101464        0.6060340254  MEMB      117             0.0000000000
     13501       117  OSM       H18S          -18.3297741256       -5.2546292211        1.4639691888  MEMB      117             0.0000000000
     13502       117  OSM       H18T          -19.4745907285       -6.4703004450        0.7871484287  MEMB      117             0.0000000000
     13503       117  OSM       H18U          -19.7324523227       -4.6702906924        0.4241566018  MEMB      117             0.0000000000
     13504       117  OSM       C1F           -18.1173344240       -5.4254724211      -16.1557183664  MEMB      117             0.0000000000
     13505       117  OSM       OF            -18.7236916528       -4.4641778493      -16.6022935899  MEMB      117             0.0000000000
     13506       117  OSM       C2F           -16.9921769845       -5.1604023415      -15.2531757373  MEMB      117             0.0000000000
     13507       117  OSM       H2F           -17.4270730239       -4.7291133863      -14.3262582048  MEMB      117             0.0000000000
     13508       117  OSM       H2G           -16.3940992788       -4.3387748265      -15.7021213886  MEMB      117             0.0000000000
     13509       117  OSM       C3F           -16.2279426714       -6.5022482992      -14.9284900456  MEMB      117             0.0000000000
     13510       117  OSM       H3F           -16.0506947096       -7.2664791922      -15.7151637374  MEMB      117             0.0000000000
     13511       117  OSM       H3G           -16.8340608919       -7.0146792883      -14.1510866321  MEMB      117             0.0000000000
     13512       117  OSM       C4F           -14.8030005608       -6.3281746592      -14.2796084420  MEMB      117             0.0000000000
     13513       117  OSM       H4F           -14.1180541540       -5.8337971870      -15.0012456687  MEMB      117             0.0000000000
     13514       117  OSM       H4G           -14.4038454685       -7.3029486380      -13.9263209221  MEMB      117             0.0000000000
     13515       117  OSM       C5F           -14.8809348220       -5.3953720618      -13.0217836041  MEMB      117             0.0000000000
     13516       117  OSM       H5F           -15.8495673053       -5.4929261112      -12.4864748585  MEMB      117             0.0000000000
     13517       117  OSM       H5G           -14.6586460249       -4.3618163232      -13.3633554364  MEMB      117             0.0000000000
     13518       117  OSM       C6F           -13.8260311423       -5.8625805304      -12.0638229326  MEMB      117             0.0000000000
     13519       117  OSM       H6F           -12.9215835734       -6.2347361524      -12.5908866468  MEMB      117             0.0000000000
     13520       117  OSM       H6G           -14.1183037770       -6.6920175547      -11.3849031547  MEMB      117             0.0000000000
     13521       117  OSM       C7F           -13.6028854663       -4.8213790734      -10.9818945059  MEMB      117             0.0000000000
     13522       117  OSM       H7F           -14.6290350639       -4.7078591274      -10.5714664256  MEMB      117             0.0000000000
     13523       117  OSM       H7G           -13.2885779063       -3.8473807343      -11.4141659366  MEMB      117             0.0000000000
     13524       117  OSM       C8F           -12.6883792910       -5.2936234053       -9.8626303703  MEMB      117             0.0000000000
     13525       117  OSM       H8F           -11.6707728147       -5.3357712136      -10.3065021209  MEMB      117             0.0000000000
     13526       117  OSM       H8G           -12.9211861901       -6.3356905820       -9.5556806706  MEMB      117             0.0000000000
     13527       117  OSM       C9F           -12.5146926686       -4.2928771065       -8.7389529325  MEMB      117             0.0000000000
     13528       117  OSM       H9F           -11.6954922698       -3.5767804375       -8.9005589674  MEMB      117             0.0000000000
     13529       117  OSM       C10F          -13.2204610500       -4.1737300902       -7.5984063876  MEMB      117             0.0000000000
     13530       117  OSM       H10F          -12.8782785304       -3.4500099412       -6.8439919774  MEMB      117             0.0000000000
     13531       117  OSM       C11F          -14.4046282167       -5.0808379765       -7.1835370364  MEMB      117             0.0000000000
     13532       117  OSM       H11F          -15.0752188810       -5.4108431862       -8.0055620084  MEMB      117             0.0000000000
     13533       117  OSM       H11G          -15.0419499544       -4.3682810707       -6.6174941049  MEMB      117             0.0000000000
     13534       117  OSM       C12F          -14.0872220379       -6.3207241101       -6.3904815206  MEMB      117             0.0000000000
     13535       117  OSM       H12F          -13.2632587925       -6.8457271711       -6.9194217546  MEMB      117             0.0000000000
     13536       117  OSM       H12G          -14.8937442359       -7.0394990473       -6.1312416296  MEMB      117             0.0000000000
     13537       117  OSM       C13F          -13.4366161758       -6.0030645746       -4.9944882259  MEMB      117             0.0000000000
     13538       117  OSM       H13F          -14.1310654041       -5.4832140693       -4.3003587030  MEMB      117             0.0000000000
     13539       117  OSM       H13G          -12.5460448283       -5.3526337114       -5.1291859801  MEMB      117             0.0000000000
     13540       117  OSM       C14F          -13.1175967660       -7.2779561328       -4.2761739165  MEMB      117             0.0000000000
     13541       117  OSM       H14F          -12.1963796439       -7.1955517949       -3.6606333562  MEMB      117             0.0000000000
     13542       117  OSM       H14G          -12.6451743397       -7.9784544433       -4.9975887746  MEMB      117             0.0000000000
     13543       117  OSM       C15F          -14.2889212519       -7.8241186963       -3.4778136544  MEMB      117             0.0000000000
     13544       117  OSM       H15F          -15.2766513444       -7.3754003624       -3.7173167368  MEMB      117             0.0000000000
     13545       117  OSM       H15G          -14.0655411424       -7.5479074192       -2.4251369389  MEMB      117             0.0000000000
     13546       117  OSM       C16F          -14.5482980880       -9.3489751518       -3.8082478176  MEMB      117             0.0000000000
     13547       117  OSM       H16F          -13.6215806858       -9.9617188927       -3.8160460443  MEMB      117             0.0000000000
     13548       117  OSM       H16G          -14.9117869290       -9.2941634608       -4.8566713844  MEMB      117             0.0000000000
     13549       117  OSM       C17F          -15.6148795379      -10.0279873646       -2.9854330241  MEMB      117             0.0000000000
     13550       117  OSM       H17F          -15.4720051314      -11.1065519326       -3.2103923997  MEMB      117             0.0000000000
     13551       117  OSM       H17G          -16.6416442407       -9.7926307570       -3.3385375853  MEMB      117             0.0000000000
     13552       117  OSM       C18F          -15.5614874720       -9.8440161635       -1.4708778521  MEMB      117             0.0000000000
     13553       117  OSM       H18F          -14.5292611249      -10.0520321247       -1.1165355323  MEMB      117             0.0000000000
     13554       117  OSM       H18G          -16.2435024122      -10.5568750339       -0.9599883369  MEMB      117             0.0000000000
     13555       117  OSM       H18H          -15.8317199325       -8.7790631135       -1.3060431624  MEMB      117             0.0000000000
     13556       118  CHL1      C3            -16.4369033195        8.8695101520      -17.3191500000  MEMB      118             0.0000000000
     13557       118  CHL1      H3            -16.9375446818        9.8446606290      -17.1381600000  MEMB      118             0.0000000000
     13558       118  CHL1      O3            -16.5798078805        8.5120432280      -18.6808500000  MEMB      118             0.0000000000
     13559       118  CHL1      H3'           -15.9949445287        7.7825190209      -18.8983900000  MEMB      118             0.0000000000
     13560       118  CHL1      C4            -14.9411129847        9.0777863361      -16.8982500000  MEMB      118             0.0000000000
     13561       118  CHL1      H4A           -14.3752373552        8.2075796887      -17.2942800000  MEMB      118             0.0000000000
     13562       118  CHL1      H4B           -14.5624163201        9.9585002074      -17.4597100000  MEMB      118             0.0000000000
     13563       118  CHL1      C5            -14.8552176197        9.1289116603      -15.4195800000  MEMB      118             0.0000000000
     13564       118  CHL1      C6            -14.2497783005       10.1342520259      -14.8393700000  MEMB      118             0.0000000000
     13565       118  CHL1      H6            -13.6754520222       10.8795058665      -15.4092300000  MEMB      118             0.0000000000
     13566       118  CHL1      C7            -13.9259032563       10.1937204364      -13.3385700000  MEMB      118             0.0000000000
     13567       118  CHL1      H7A           -12.9225270919       10.6270066989      -13.1390600000  MEMB      118             0.0000000000
     13568       118  CHL1      H7B           -14.7430677644       10.7736349536      -12.8587100000  MEMB      118             0.0000000000
     13569       118  CHL1      C8            -14.1153596837        8.7847225730      -12.6259400000  MEMB      118             0.0000000000
     13570       118  CHL1      H8            -13.2787819248        8.0686817391      -12.7734000000  MEMB      118             0.0000000000
     13571       118  CHL1      C14           -14.2157578468        8.9996090533      -11.1393100000  MEMB      118             0.0000000000
     13572       118  CHL1      H14           -15.1815886343        9.5453594847      -11.0788600000  MEMB      118             0.0000000000
     13573       118  CHL1      C15           -13.1287079558        9.7236742292      -10.5450300000  MEMB      118             0.0000000000
     13574       118  CHL1      H15A          -12.2142739309        9.3255055708      -11.0345100000  MEMB      118             0.0000000000
     13575       118  CHL1      H15B          -13.3731604105       10.7859632201      -10.7597600000  MEMB      118             0.0000000000
     13576       118  CHL1      C16           -13.1473980529        9.3750601838       -8.9939000000  MEMB      118             0.0000000000
     13577       118  CHL1      H16A          -12.1154699184        9.0153828542       -8.7937000000  MEMB      118             0.0000000000
     13578       118  CHL1      H16B          -13.3152597369       10.2901307966       -8.3866300000  MEMB      118             0.0000000000
     13579       118  CHL1      C17           -14.2052187144        8.3343899319       -8.8144000000  MEMB      118             0.0000000000
     13580       118  CHL1      H17           -15.0630999518        9.0156430151       -8.6293300000  MEMB      118             0.0000000000
     13581       118  CHL1      C13           -14.3703431644        7.7682614297      -10.2356600000  MEMB      118             0.0000000000
     13582       118  CHL1      C18           -13.2568082638        6.7200365315      -10.3783200000  MEMB      118             0.0000000000
     13583       118  CHL1      H18A          -12.2802944845        7.0616424729       -9.9732800000  MEMB      118             0.0000000000
     13584       118  CHL1      H18B          -13.5945507892        5.7498359311       -9.9552800000  MEMB      118             0.0000000000
     13585       118  CHL1      H18C          -13.0192975549        6.5600286788      -11.4517800000  MEMB      118             0.0000000000
     13586       118  CHL1      C12           -15.7695838632        7.1961456920      -10.6422100000  MEMB      118             0.0000000000
     13587       118  CHL1      H12A          -16.0169123494        6.2755051413      -10.0716000000  MEMB      118             0.0000000000
     13588       118  CHL1      H12B          -16.3779262052        8.0521526343      -10.2796100000  MEMB      118             0.0000000000
     13589       118  CHL1      C11           -15.9369945011        7.0271957558      -12.1443900000  MEMB      118             0.0000000000
     13590       118  CHL1      H11A          -15.4660802840        6.0522446162      -12.3934600000  MEMB      118             0.0000000000
     13591       118  CHL1      H11B          -17.0288299207        6.8549591460      -12.2563500000  MEMB      118             0.0000000000
     13592       118  CHL1      C9            -15.4579341363        8.1463690587      -13.0630900000  MEMB      118             0.0000000000
     13593       118  CHL1      H9            -16.2354039493        8.8959996223      -12.8024600000  MEMB      118             0.0000000000
     13594       118  CHL1      C10           -15.4738355726        7.9581399535      -14.6395700000  MEMB      118             0.0000000000
     13595       118  CHL1      C19           -14.6839229665        6.6305473128      -14.9436800000  MEMB      118             0.0000000000
     13596       118  CHL1      H19A          -13.6291367362        6.8003933430      -14.6389000000  MEMB      118             0.0000000000
     13597       118  CHL1      H19B          -15.1061531007        5.8150591513      -14.3183700000  MEMB      118             0.0000000000
     13598       118  CHL1      H19C          -14.6915543107        6.3446633533      -16.0172500000  MEMB      118             0.0000000000
     13599       118  CHL1      C1            -16.9803058964        7.7113974226      -15.0797100000  MEMB      118             0.0000000000
     13600       118  CHL1      H1A           -17.4922677088        6.8216721759      -14.6547300000  MEMB      118             0.0000000000
     13601       118  CHL1      H1B           -17.5857152760        8.4918059303      -14.5710300000  MEMB      118             0.0000000000
     13602       118  CHL1      C2            -17.2032886303        7.6974932725      -16.6251900000  MEMB      118             0.0000000000
     13603       118  CHL1      H2A           -18.3034738604        7.6773523715      -16.7784600000  MEMB      118             0.0000000000
     13604       118  CHL1      H2B           -16.8046275611        6.7500240673      -17.0467100000  MEMB      118             0.0000000000
     13605       118  CHL1      C20           -13.8699079791        7.4166944735       -7.5303300000  MEMB      118             0.0000000000
     13606       118  CHL1      H20           -12.8800513908        7.0391370798       -7.8649300000  MEMB      118             0.0000000000
     13607       118  CHL1      C21           -14.7372816300        6.1458689792       -7.2653700000  MEMB      118             0.0000000000
     13608       118  CHL1      H21A          -15.7314656545        6.3987126055       -6.8387700000  MEMB      118             0.0000000000
     13609       118  CHL1      H21B          -14.2463543656        5.3651666752       -6.6458400000  MEMB      118             0.0000000000
     13610       118  CHL1      H21C          -14.9780173635        5.6358628711       -8.2225800000  MEMB      118             0.0000000000
     13611       118  CHL1      C22           -13.6090102275        8.1176478558       -6.2062400000  MEMB      118             0.0000000000
     13612       118  CHL1      H22A          -12.6910708313        8.7434828982       -6.2120900000  MEMB      118             0.0000000000
     13613       118  CHL1      H22B          -14.3223156656        8.9539610462       -6.0446600000  MEMB      118             0.0000000000
     13614       118  CHL1      C23           -13.4150545565        7.1235496476       -5.0702600000  MEMB      118             0.0000000000
     13615       118  CHL1      H23A          -14.3722248492        6.6388242762       -4.7818400000  MEMB      118             0.0000000000
     13616       118  CHL1      H23B          -12.6427357659        6.3652544105       -5.3209100000  MEMB      118             0.0000000000
     13617       118  CHL1      C24           -12.9639989154        7.8659262679       -3.8069300000  MEMB      118             0.0000000000
     13618       118  CHL1      H24A          -11.8905353636        8.1428663154       -3.7341800000  MEMB      118             0.0000000000
     13619       118  CHL1      H24B          -13.5455109207        8.8112883060       -3.7573800000  MEMB      118             0.0000000000
     13620       118  CHL1      C25           -13.3755305313        7.1295582360       -2.5338200000  MEMB      118             0.0000000000
     13621       118  CHL1      H25           -14.4405421727        6.8784977579       -2.7262800000  MEMB      118             0.0000000000
     13622       118  CHL1      C26           -12.5846390961        5.8590918134       -2.3838200000  MEMB      118             0.0000000000
     13623       118  CHL1      H26A          -11.4775990232        5.9477778187       -2.3532400000  MEMB      118             0.0000000000
     13624       118  CHL1      H26B          -12.9492620904        5.3102069256       -1.4893500000  MEMB      118             0.0000000000
     13625       118  CHL1      H26C          -12.8328297664        5.2150065793       -3.2543900000  MEMB      118             0.0000000000
     13626       118  CHL1      C27           -13.1503987005        7.8234215258       -1.2101600000  MEMB      118             0.0000000000
     13627       118  CHL1      H27A          -13.2897385190        7.1119554741       -0.3683100000  MEMB      118             0.0000000000
     13628       118  CHL1      H27B          -12.1143773501        8.2218171387       -1.1625400000  MEMB      118             0.0000000000
     13629       118  CHL1      H27C          -13.8574929174        8.6693323842       -1.0731400000  MEMB      118             0.0000000000
     13630       119  OSM       N               3.2480229226      -19.2613842755      -22.9737990573  MEMB      119             0.0000000000
     13631       119  OSM       C15             3.7293888967      -19.7919718681      -24.3241832685  MEMB      119             0.0000000000
     13632       119  OSM       H15A            4.0105300899      -20.8168664419      -24.1319573251  MEMB      119             0.0000000000
     13633       119  OSM       H15B            4.5776836399      -19.2307675832      -24.6872889962  MEMB      119             0.0000000000
     13634       119  OSM       H15C            2.9482105799      -19.6809639988      -25.0616368336  MEMB      119             0.0000000000
     13635       119  OSM       C14             2.8125045223      -17.8562070989      -23.1478656946  MEMB      119             0.0000000000
     13636       119  OSM       H14A            1.8388709569      -17.7647979922      -23.6062127457  MEMB      119             0.0000000000
     13637       119  OSM       H14B            3.5697233452      -17.3652698373      -23.7411617634  MEMB      119             0.0000000000
     13638       119  OSM       H14C            2.6507146339      -17.4721012930      -22.1515290208  MEMB      119             0.0000000000
     13639       119  OSM       C13             2.1226508032      -20.1379199187      -22.6024485847  MEMB      119             0.0000000000
     13640       119  OSM       H13A            2.4523410716      -21.1571205604      -22.7400507531  MEMB      119             0.0000000000
     13641       119  OSM       H13B            1.2985355003      -19.9205895482      -23.2657746899  MEMB      119             0.0000000000
     13642       119  OSM       H13C            1.8000647511      -19.9677457390      -21.5858961059  MEMB      119             0.0000000000
     13643       119  OSM       C12             4.5077491599      -19.3706370254      -22.1049534854  MEMB      119             0.0000000000
     13644       119  OSM       H12A            5.0895348241      -18.5499686291      -22.4979277109  MEMB      119             0.0000000000
     13645       119  OSM       H12B            5.0406007312      -20.2751878540      -22.3584430992  MEMB      119             0.0000000000
     13646       119  OSM       C11             4.3893690439      -19.1517732796      -20.6110152533  MEMB      119             0.0000000000
     13647       119  OSM       H11A            5.3957989966      -18.9413265894      -20.1901447628  MEMB      119             0.0000000000
     13648       119  OSM       H11B            4.0243376575      -20.0278477495      -20.0334629847  MEMB      119             0.0000000000
     13649       119  OSM       P               2.9374732962      -17.7330539800      -19.0185954232  MEMB      119             0.0000000000
     13650       119  OSM       O13             2.5835397250      -16.3689668314      -18.8540400227  MEMB      119             0.0000000000
     13651       119  OSM       O14             1.7705679936      -18.6081361884      -18.9341132318  MEMB      119             0.0000000000
     13652       119  OSM       O11             4.0320560080      -18.2849115076      -17.9576352691  MEMB      119             0.0000000000
     13653       119  OSM       O12             3.5755171075      -17.9734798287      -20.4713507128  MEMB      119             0.0000000000
     13654       119  OSM       C1S             3.6727233727      -18.8795713634      -16.7156300117  MEMB      119             0.0000000000
     13655       119  OSM       H1S             3.2842676754      -19.9051002401      -16.8937135424  MEMB      119             0.0000000000
     13656       119  OSM       H1T             2.8913175101      -18.2086758311      -16.2989465648  MEMB      119             0.0000000000
     13657       119  OSM       NF              4.4732684669      -19.7202337598      -14.5867902968  MEMB      119             0.0000000000
     13658       119  OSM       HNF             4.4051528193      -19.1706837230      -13.7577161854  MEMB      119             0.0000000000
     13659       119  OSM       C2S             4.9493724656      -19.0371335730      -15.7936923171  MEMB      119             0.0000000000
     13660       119  OSM       H2S             5.7131878737      -19.6485800743      -16.3200385373  MEMB      119             0.0000000000
     13661       119  OSM       C3S             5.5377560399      -17.6353447675      -15.4664703511  MEMB      119             0.0000000000
     13662       119  OSM       H3S             4.6927944311      -16.9154953651      -15.4198046244  MEMB      119             0.0000000000
     13663       119  OSM       O3              6.2762672090      -17.2301314257      -16.5616471588  MEMB      119             0.0000000000
     13664       119  OSM       HO3             6.3455994379      -17.9892062132      -17.1452554748  MEMB      119             0.0000000000
     13665       119  OSM       C4S             6.5405351152      -17.7107324917      -14.3115137427  MEMB      119             0.0000000000
     13666       119  OSM       H4S             7.5365178410      -18.1298069757      -14.5174137350  MEMB      119             0.0000000000
     13667       119  OSM       C5S             6.2528005095      -17.4310248774      -13.0849302034  MEMB      119             0.0000000000
     13668       119  OSM       H5S             5.2582905180      -17.0658450222      -12.7889683443  MEMB      119             0.0000000000
     13669       119  OSM       C6S             7.2030788900      -17.4780168859      -11.9206116614  MEMB      119             0.0000000000
     13670       119  OSM       H6S             7.4843518390      -16.4658517622      -11.5590473362  MEMB      119             0.0000000000
     13671       119  OSM       H6T             8.1404507971      -17.9262228382      -12.3140152995  MEMB      119             0.0000000000
     13672       119  OSM       C7S             6.7087657347      -18.5424396591      -10.9407542133  MEMB      119             0.0000000000
     13673       119  OSM       H7S             6.2665430554      -19.4854705370      -11.3273455650  MEMB      119             0.0000000000
     13674       119  OSM       H7T             5.8336120053      -18.0642746137      -10.4510753229  MEMB      119             0.0000000000
     13675       119  OSM       C8S             7.7189978003      -19.0387391902       -9.9175459435  MEMB      119             0.0000000000
     13676       119  OSM       H8S             8.0628274970      -18.2571257507       -9.2067841907  MEMB      119             0.0000000000
     13677       119  OSM       H8T             8.6237869934      -19.3130424227      -10.5010146610  MEMB      119             0.0000000000
     13678       119  OSM       C9S             7.3007326644      -20.3178952596       -9.1113495091  MEMB      119             0.0000000000
     13679       119  OSM       H9S             8.1422402384      -21.0120410066       -8.9007590011  MEMB      119             0.0000000000
     13680       119  OSM       H9T             6.6339622245      -20.8213885172       -9.8436284695  MEMB      119             0.0000000000
     13681       119  OSM       C10S            6.3332785182      -20.1410537530       -7.8552772520  MEMB      119             0.0000000000
     13682       119  OSM       H10S            5.3436240280      -19.7697188804       -8.1973518533  MEMB      119             0.0000000000
     13683       119  OSM       H10T            6.8270498516      -19.5338897205       -7.0666941154  MEMB      119             0.0000000000
     13684       119  OSM       C11S            6.0389541121      -21.5820799435       -7.2867479679  MEMB      119             0.0000000000
     13685       119  OSM       H11S            6.8971914968      -22.2833822585       -7.2097765337  MEMB      119             0.0000000000
     13686       119  OSM       H11T            5.2961692474      -22.0598636842       -7.9607757683  MEMB      119             0.0000000000
     13687       119  OSM       C12S            5.5498079784      -21.6284542671       -5.8304333923  MEMB      119             0.0000000000
     13688       119  OSM       H12S            6.3124278904      -21.1901558166       -5.1517389661  MEMB      119             0.0000000000
     13689       119  OSM       H12T            5.2769091495      -22.6668708082       -5.5448848790  MEMB      119             0.0000000000
     13690       119  OSM       C13S            4.1573148924      -20.9296429425       -5.5643959773  MEMB      119             0.0000000000
     13691       119  OSM       H13S            4.1856270411      -19.9896266273       -6.1559098730  MEMB      119             0.0000000000
     13692       119  OSM       H13T            4.0161365470      -20.8395011440       -4.4660950348  MEMB      119             0.0000000000
     13693       119  OSM       C14S            2.9305905330      -21.7470310387       -6.1011349351  MEMB      119             0.0000000000
     13694       119  OSM       H14S            2.9953570173      -22.8225998332       -5.8304356481  MEMB      119             0.0000000000
     13695       119  OSM       H14T            3.0478464122      -21.7467786892       -7.2059295314  MEMB      119             0.0000000000
     13696       119  OSM       C15S            1.5784277818      -21.2093710352       -5.6293003873  MEMB      119             0.0000000000
     13697       119  OSM       H15S            0.8229315285      -21.8589541127       -6.1208165784  MEMB      119             0.0000000000
     13698       119  OSM       H15T            1.4081512694      -20.1592128443       -5.9494480410  MEMB      119             0.0000000000
     13699       119  OSM       C16S            1.3027018461      -21.4835131810       -4.1293548713  MEMB      119             0.0000000000
     13700       119  OSM       H16S            1.6639164432      -20.6844696138       -3.4471722291  MEMB      119             0.0000000000
     13701       119  OSM       H16T            1.7117985833      -22.4730290466       -3.8330111696  MEMB      119             0.0000000000
     13702       119  OSM       C17S           -0.1919177639      -21.5870513042       -3.8558615012  MEMB      119             0.0000000000
     13703       119  OSM       H17S           -0.7278539467      -22.3241512531       -4.4912951281  MEMB      119             0.0000000000
     13704       119  OSM       H17T           -0.6343437179      -20.6290330934       -4.2033980088  MEMB      119             0.0000000000
     13705       119  OSM       C18S           -0.4320118051      -21.8458640099       -2.3442656149  MEMB      119             0.0000000000
     13706       119  OSM       H18S           -1.4924286038      -21.6043477669       -2.1173142855  MEMB      119             0.0000000000
     13707       119  OSM       H18T            0.0862320086      -21.0601933403       -1.7539547998  MEMB      119             0.0000000000
     13708       119  OSM       H18U           -0.1841423165      -22.9171878918       -2.1856889655  MEMB      119             0.0000000000
     13709       119  OSM       C1F             4.0748083831      -20.9620526132      -14.5005972615  MEMB      119             0.0000000000
     13710       119  OSM       OF              4.3739213022      -21.8125254863      -15.3678197342  MEMB      119             0.0000000000
     13711       119  OSM       C2F             3.2250741639      -21.3444006282      -13.2988929397  MEMB      119             0.0000000000
     13712       119  OSM       H2F             2.4825680569      -22.1289383755      -13.5587127054  MEMB      119             0.0000000000
     13713       119  OSM       H2G             2.7603991367      -20.3978880579      -12.9488757919  MEMB      119             0.0000000000
     13714       119  OSM       C3F             4.1579143647      -21.7586841308      -12.1140663378  MEMB      119             0.0000000000
     13715       119  OSM       H3F             4.7686843813      -20.8883282162      -11.7919461916  MEMB      119             0.0000000000
     13716       119  OSM       H3G             4.7936393916      -22.6037715812      -12.4546571961  MEMB      119             0.0000000000
     13717       119  OSM       C4F             3.3332384257      -22.3993907291      -10.9360420573  MEMB      119             0.0000000000
     13718       119  OSM       H4F             4.0501510850      -22.5470396398      -10.1002445853  MEMB      119             0.0000000000
     13719       119  OSM       H4G             2.8920313542      -23.3475141306      -11.3111672206  MEMB      119             0.0000000000
     13720       119  OSM       C5F             2.1942105862      -21.4200752498      -10.4508702215  MEMB      119             0.0000000000
     13721       119  OSM       H5F             1.7912403767      -22.0572336912       -9.6348028093  MEMB      119             0.0000000000
     13722       119  OSM       H5G             1.4615698414      -21.4026485634      -11.2858875395  MEMB      119             0.0000000000
     13723       119  OSM       C6F             2.5879090670      -20.0675666727       -9.8205522451  MEMB      119             0.0000000000
     13724       119  OSM       H6F             3.0295434261      -19.4203721120      -10.6082195988  MEMB      119             0.0000000000
     13725       119  OSM       H6G             3.3733221337      -20.2620656287       -9.0592260322  MEMB      119             0.0000000000
     13726       119  OSM       C7F             1.2986607473      -19.4961355177       -9.2401567893  MEMB      119             0.0000000000
     13727       119  OSM       H7F             0.9383574117      -20.1287996656       -8.4009673017  MEMB      119             0.0000000000
     13728       119  OSM       H7G             0.5281998399      -19.4578518582      -10.0396850880  MEMB      119             0.0000000000
     13729       119  OSM       C8F             1.4378937305      -18.1041922954       -8.5476550295  MEMB      119             0.0000000000
     13730       119  OSM       H8F             2.2021006381      -18.1547640155       -7.7428251203  MEMB      119             0.0000000000
     13731       119  OSM       H8G             0.4682485030      -17.6887472296       -8.1990651308  MEMB      119             0.0000000000
     13732       119  OSM       C9F             1.8736683284      -17.0065159233       -9.5047633849  MEMB      119             0.0000000000
     13733       119  OSM       H9F             1.2865242960      -16.9482971371      -10.4331336241  MEMB      119             0.0000000000
     13734       119  OSM       C10F            2.9037151957      -16.1351960116       -9.4136960312  MEMB      119             0.0000000000
     13735       119  OSM       H10F            3.0897451731      -15.5798601198      -10.3448217071  MEMB      119             0.0000000000
     13736       119  OSM       C11F            3.9324592180      -15.9788901992       -8.2660867209  MEMB      119             0.0000000000
     13737       119  OSM       H11F            4.6101937960      -15.1149287037       -8.4351053005  MEMB      119             0.0000000000
     13738       119  OSM       H11G            4.4837904187      -16.9401787040       -8.1868442869  MEMB      119             0.0000000000
     13739       119  OSM       C12F            3.4193671150      -15.8257087473       -6.8437764884  MEMB      119             0.0000000000
     13740       119  OSM       H12F            2.5840185025      -16.5195671787       -6.6090969258  MEMB      119             0.0000000000
     13741       119  OSM       H12G            2.9805074327      -14.8089241014       -6.9325041228  MEMB      119             0.0000000000
     13742       119  OSM       C13F            4.5236312042      -15.8870662130       -5.7726616964  MEMB      119             0.0000000000
     13743       119  OSM       H13F            5.2569419800      -15.0563854528       -5.8535693794  MEMB      119             0.0000000000
     13744       119  OSM       H13G            5.0378791965      -16.8501923203       -5.9782302103  MEMB      119             0.0000000000
     13745       119  OSM       C14F            4.0315237966      -15.9531023278       -4.2854258123  MEMB      119             0.0000000000
     13746       119  OSM       H14F            3.3155922050      -15.1171730881       -4.1338173786  MEMB      119             0.0000000000
     13747       119  OSM       H14G            4.9649833132      -15.7723384272       -3.7107093889  MEMB      119             0.0000000000
     13748       119  OSM       C15F            3.2761939281      -17.1561980242       -3.9023628956  MEMB      119             0.0000000000
     13749       119  OSM       H15F            3.7817700976      -18.0876837128       -4.2356015006  MEMB      119             0.0000000000
     13750       119  OSM       H15G            2.2351042218      -17.1036599549       -4.2866720928  MEMB      119             0.0000000000
     13751       119  OSM       C16F            3.0704236319      -17.2018038501       -2.3821331688  MEMB      119             0.0000000000
     13752       119  OSM       H16F            2.1741075862      -17.7942285358       -2.0993410690  MEMB      119             0.0000000000
     13753       119  OSM       H16G            3.0224603767      -16.1458581421       -2.0400818739  MEMB      119             0.0000000000
     13754       119  OSM       C17F            4.2464089687      -17.8016853092       -1.6167382682  MEMB      119             0.0000000000
     13755       119  OSM       H17F            5.1527944235      -17.1889326721       -1.8099243159  MEMB      119             0.0000000000
     13756       119  OSM       H17G            4.5224825289      -18.8465946300       -1.8741651455  MEMB      119             0.0000000000
     13757       119  OSM       C18F            4.0527327789      -17.6501248345       -0.1073315443  MEMB      119             0.0000000000
     13758       119  OSM       H18F            4.8941091422      -18.1158197323        0.4490272050  MEMB      119             0.0000000000
     13759       119  OSM       H18G            3.0660320820      -18.1382454208        0.0426044892  MEMB      119             0.0000000000
     13760       119  OSM       H18H            3.8953081781      -16.5971506994        0.2101329583  MEMB      119             0.0000000000
     13761       120  OSM       N               9.6585370333       20.0393927277      -22.5596063675  MEMB      120             0.0000000000
     13762       120  OSM       C15             9.0651676964       21.3630956675      -22.8611089791  MEMB      120             0.0000000000
     13763       120  OSM       H15A            8.1179339228       21.1442712447      -23.3314958893  MEMB      120             0.0000000000
     13764       120  OSM       H15B            9.6477171868       22.0774841364      -23.4238569174  MEMB      120             0.0000000000
     13765       120  OSM       H15C            8.8050554517       21.8941553166      -21.9573848035  MEMB      120             0.0000000000
     13766       120  OSM       C14             9.9342957321       19.3868287529      -23.8924231681  MEMB      120             0.0000000000
     13767       120  OSM       H14A            8.9938829289       19.2392625778      -24.4025683347  MEMB      120             0.0000000000
     13768       120  OSM       H14B           10.2579896703       18.3691055879      -23.7316072204  MEMB      120             0.0000000000
     13769       120  OSM       H14C           10.6252017478       19.9912787702      -24.4613601454  MEMB      120             0.0000000000
     13770       120  OSM       C13            10.8030076806       20.0743618706      -21.5577720819  MEMB      120             0.0000000000
     13771       120  OSM       H13A           11.5905016909       20.6990374122      -21.9527833219  MEMB      120             0.0000000000
     13772       120  OSM       H13B           11.2686359634       19.1113877828      -21.4085367805  MEMB      120             0.0000000000
     13773       120  OSM       H13C           10.4067493793       20.4104927705      -20.6109904692  MEMB      120             0.0000000000
     13774       120  OSM       C12             8.5833061338       19.2216643863      -21.9238243266  MEMB      120             0.0000000000
     13775       120  OSM       H12A            7.7520108868       19.1989377131      -22.6129047265  MEMB      120             0.0000000000
     13776       120  OSM       H12B            8.1322258792       19.7601018166      -21.1034514641  MEMB      120             0.0000000000
     13777       120  OSM       C11             8.9022117878       17.7081927369      -21.6015118458  MEMB      120             0.0000000000
     13778       120  OSM       H11A            9.3761169155       17.2301776779      -22.4853876848  MEMB      120             0.0000000000
     13779       120  OSM       H11B            7.9837007288       17.1028503770      -21.4458866029  MEMB      120             0.0000000000
     13780       120  OSM       P               9.5051235395       16.6350131691      -19.2979119006  MEMB      120             0.0000000000
     13781       120  OSM       O13             9.2339251836       15.2762322776      -19.7767025949  MEMB      120             0.0000000000
     13782       120  OSM       O14            10.6522742919       16.6934653302      -18.2786296284  MEMB      120             0.0000000000
     13783       120  OSM       O11             8.2436722785       17.4168890342      -18.7481139328  MEMB      120             0.0000000000
     13784       120  OSM       O12             9.8218809919       17.5724063797      -20.5023952269  MEMB      120             0.0000000000
     13785       120  OSM       C1S             7.6831178528       16.8128026986      -17.6164768892  MEMB      120             0.0000000000
     13786       120  OSM       H1S             7.6609361441       15.7028292180      -17.5741958073  MEMB      120             0.0000000000
     13787       120  OSM       H1T             6.6173771566       17.1006108857      -17.4912409759  MEMB      120             0.0000000000
     13788       120  OSM       NF              7.8339228222       16.7906938043      -15.0567693145  MEMB      120             0.0000000000
     13789       120  OSM       HNF             7.1191199131       17.3276693758      -14.6154952416  MEMB      120             0.0000000000
     13790       120  OSM       C2S             8.4167905119       17.3197584935      -16.2940085872  MEMB      120             0.0000000000
     13791       120  OSM       H2S             9.4162625925       16.8346096526      -16.2913150776  MEMB      120             0.0000000000
     13792       120  OSM       C3S             8.4659648927       18.9053219905      -16.0989955403  MEMB      120             0.0000000000
     13793       120  OSM       H3S             7.4390040029       19.3032319076      -16.2450780156  MEMB      120             0.0000000000
     13794       120  OSM       O3              9.2364627880       19.4306334011      -17.1680679186  MEMB      120             0.0000000000
     13795       120  OSM       HO3             9.2069340127       18.6932346980      -17.7820475344  MEMB      120             0.0000000000
     13796       120  OSM       C4S             9.1622959273       19.3162179239      -14.8410548801  MEMB      120             0.0000000000
     13797       120  OSM       H4S            10.1399530581       18.8678180291      -14.6105682782  MEMB      120             0.0000000000
     13798       120  OSM       C5S             8.6700320696       20.3111782276      -14.0565782488  MEMB      120             0.0000000000
     13799       120  OSM       H5S             7.8484003628       20.9584023380      -14.3971988483  MEMB      120             0.0000000000
     13800       120  OSM       C6S             9.2403725333       20.8323731562      -12.7551561788  MEMB      120             0.0000000000
     13801       120  OSM       H6S             9.4850359062       21.9097036859      -12.8727150838  MEMB      120             0.0000000000
     13802       120  OSM       H6T            10.2177415286       20.3677194856      -12.5038240351  MEMB      120             0.0000000000
     13803       120  OSM       C7S             8.4525403676       20.5697927126      -11.4851723884  MEMB      120             0.0000000000
     13804       120  OSM       H7S             7.5033948457       21.1471168328      -11.4970279253  MEMB      120             0.0000000000
     13805       120  OSM       H7T             9.1026632084       20.9456291559      -10.6663878963  MEMB      120             0.0000000000
     13806       120  OSM       C8S             8.1786211574       19.0728895697      -11.1549459115  MEMB      120             0.0000000000
     13807       120  OSM       H8S             9.1362975911       18.5467862090      -10.9539680510  MEMB      120             0.0000000000
     13808       120  OSM       H8T             7.6776603312       18.6276729566      -12.0410282479  MEMB      120             0.0000000000
     13809       120  OSM       C9S             7.2247639681       18.8827215226      -10.0518629935  MEMB      120             0.0000000000
     13810       120  OSM       H9S             7.0259616384       17.8099509173       -9.8421923428  MEMB      120             0.0000000000
     13811       120  OSM       H9T             6.2586713501       19.3044548253      -10.4027576113  MEMB      120             0.0000000000
     13812       120  OSM       C10S            7.5620606538       19.4040599716       -8.6816875130  MEMB      120             0.0000000000
     13813       120  OSM       H10S            6.7742943694       19.0526637922       -7.9814976247  MEMB      120             0.0000000000
     13814       120  OSM       H10T            7.5515747188       20.5145436180       -8.6494789636  MEMB      120             0.0000000000
     13815       120  OSM       C11S            8.9551488923       18.9333056686       -8.1952071281  MEMB      120             0.0000000000
     13816       120  OSM       H11S            9.6906655146       19.6681716582       -8.5867531509  MEMB      120             0.0000000000
     13817       120  OSM       H11T            9.2888061743       17.9011223105       -8.4351890406  MEMB      120             0.0000000000
     13818       120  OSM       C12S            9.1983477861       18.8469595300       -6.7068452199  MEMB      120             0.0000000000
     13819       120  OSM       H12S           10.3004514566       18.7160439380       -6.7573412244  MEMB      120             0.0000000000
     13820       120  OSM       H12T            8.7175331939       18.0542669020       -6.0946555618  MEMB      120             0.0000000000
     13821       120  OSM       C13S            9.0279476459       20.1489157534       -5.9918179705  MEMB      120             0.0000000000
     13822       120  OSM       H13S            7.9444588411       20.2518736995       -5.7687197850  MEMB      120             0.0000000000
     13823       120  OSM       H13T            9.2136643968       20.9963755944       -6.6858218935  MEMB      120             0.0000000000
     13824       120  OSM       C14S            9.8045103171       20.1910615687       -4.6198816301  MEMB      120             0.0000000000
     13825       120  OSM       H14S            9.6793095103       21.2412869846       -4.2797754765  MEMB      120             0.0000000000
     13826       120  OSM       H14T           10.8966952416       20.0187329009       -4.7283068292  MEMB      120             0.0000000000
     13827       120  OSM       C15S            9.2233350825       19.1096269988       -3.5964291634  MEMB      120             0.0000000000
     13828       120  OSM       H15S            9.7645540535       19.3954721662       -2.6692324213  MEMB      120             0.0000000000
     13829       120  OSM       H15T            9.5535168023       18.1186458637       -3.9749236754  MEMB      120             0.0000000000
     13830       120  OSM       C16S            7.7428908947       19.2154918031       -3.2197984904  MEMB      120             0.0000000000
     13831       120  OSM       H16S            7.1513620727       19.1436025808       -4.1574797726  MEMB      120             0.0000000000
     13832       120  OSM       H16T            7.6208273600       20.2902083180       -2.9660153389  MEMB      120             0.0000000000
     13833       120  OSM       C17S            7.2868248681       18.3053056376       -2.0872886560  MEMB      120             0.0000000000
     13834       120  OSM       H17S            8.1886989856       17.9876399662       -1.5215750875  MEMB      120             0.0000000000
     13835       120  OSM       H17T            7.0319181481       17.3303812601       -2.5551206531  MEMB      120             0.0000000000
     13836       120  OSM       C18S            6.1347853066       18.8618968382       -1.2906547472  MEMB      120             0.0000000000
     13837       120  OSM       H18S            6.0752253800       18.4846098452       -0.2473774619  MEMB      120             0.0000000000
     13838       120  OSM       H18T            5.2223940366       18.5434889056       -1.8388142559  MEMB      120             0.0000000000
     13839       120  OSM       H18U            6.3196119004       19.9335105841       -1.0630490028  MEMB      120             0.0000000000
     13840       120  OSM       C1F             8.1074706886       15.6509997643      -14.3991545674  MEMB      120             0.0000000000
     13841       120  OSM       OF              9.0144938324       14.9786248773      -14.7120883038  MEMB      120             0.0000000000
     13842       120  OSM       C2F             7.1286310812       15.2895020081      -13.3144387741  MEMB      120             0.0000000000
     13843       120  OSM       H2F             6.1196158165       15.2212408388      -13.7743836402  MEMB      120             0.0000000000
     13844       120  OSM       H2G             7.1821672970       15.9748636302      -12.4416643725  MEMB      120             0.0000000000
     13845       120  OSM       C3F             7.3897789825       13.8566090312      -12.6873315415  MEMB      120             0.0000000000
     13846       120  OSM       H3F             7.7184999940       13.1347778735      -13.4652922904  MEMB      120             0.0000000000
     13847       120  OSM       H3G             6.5075238319       13.4598898273      -12.1409249640  MEMB      120             0.0000000000
     13848       120  OSM       C4F             8.4246442974       14.0661781558      -11.6461529506  MEMB      120             0.0000000000
     13849       120  OSM       H4F             9.2657026462       14.6908454747      -12.0159258412  MEMB      120             0.0000000000
     13850       120  OSM       H4G             8.9855626548       13.1111010117      -11.5594396687  MEMB      120             0.0000000000
     13851       120  OSM       C5F             8.0758825887       14.3602726096      -10.1756754765  MEMB      120             0.0000000000
     13852       120  OSM       H5F             7.4713980932       13.5685393434       -9.6836611346  MEMB      120             0.0000000000
     13853       120  OSM       H5G             7.4995621153       15.3080583289      -10.1134003007  MEMB      120             0.0000000000
     13854       120  OSM       C6F             9.3035175872       14.5495131371       -9.2463098392  MEMB      120             0.0000000000
     13855       120  OSM       H6F             9.7909951068       15.4902076086       -9.5806454763  MEMB      120             0.0000000000
     13856       120  OSM       H6G             9.9518252556       13.6490198413       -9.1903640336  MEMB      120             0.0000000000
     13857       120  OSM       C7F             9.0133114360       14.8956103861       -7.7552459635  MEMB      120             0.0000000000
     13858       120  OSM       H7F             8.3967677050       15.8191395604       -7.7193475513  MEMB      120             0.0000000000
     13859       120  OSM       H7G             9.9818982868       15.0827987011       -7.2442458471  MEMB      120             0.0000000000
     13860       120  OSM       C8F             8.3468049239       13.7883682274       -6.8909509690  MEMB      120             0.0000000000
     13861       120  OSM       H8F             7.4210088198       13.3829773674       -7.3523410878  MEMB      120             0.0000000000
     13862       120  OSM       H8G             8.0414599837       14.3857208320       -6.0053687110  MEMB      120             0.0000000000
     13863       120  OSM       C9F             9.3247250462       12.7328978709       -6.4844409533  MEMB      120             0.0000000000
     13864       120  OSM       H9F             9.8517247272       12.2038805183       -7.2921608341  MEMB      120             0.0000000000
     13865       120  OSM       C10F            9.8044824178       12.4775177313       -5.2093791464  MEMB      120             0.0000000000
     13866       120  OSM       H10F           10.5330405082       11.6556814424       -5.1478303932  MEMB      120             0.0000000000
     13867       120  OSM       C11F            9.5778678635       13.1738438106       -3.8824266870  MEMB      120             0.0000000000
     13868       120  OSM       H11F            9.3008398628       12.4003429547       -3.1345805359  MEMB      120             0.0000000000
     13869       120  OSM       H11G            8.7903266732       13.9562676905       -3.9261632662  MEMB      120             0.0000000000
     13870       120  OSM       C12F           10.7540012485       13.9293850795       -3.3698736674  MEMB      120             0.0000000000
     13871       120  OSM       H12F           11.1885967548       14.5919152317       -4.1486555979  MEMB      120             0.0000000000
     13872       120  OSM       H12G           11.5944083652       13.2689825865       -3.0667136545  MEMB      120             0.0000000000
     13873       120  OSM       C13F           10.6547198295       14.8433962547       -2.0665230620  MEMB      120             0.0000000000
     13874       120  OSM       H13F            9.8978105267       15.6382565268       -2.2385877008  MEMB      120             0.0000000000
     13875       120  OSM       H13G           11.6213522668       15.3615210232       -1.8890695290  MEMB      120             0.0000000000
     13876       120  OSM       C14F           10.3544175966       13.9642226845       -0.9035336197  MEMB      120             0.0000000000
     13877       120  OSM       H14F           11.1992722160       13.2541700697       -0.7755962826  MEMB      120             0.0000000000
     13878       120  OSM       H14G            9.4632611669       13.3168779800       -1.0488121433  MEMB      120             0.0000000000
     13879       120  OSM       C15F            9.9566594256       14.7162201007        0.3691475976  MEMB      120             0.0000000000
     13880       120  OSM       H15F            9.6014288770       15.7447535869        0.1449811928  MEMB      120             0.0000000000
     13881       120  OSM       H15G           10.8601718970       14.9206939559        0.9824810943  MEMB      120             0.0000000000
     13882       120  OSM       C16F            8.9388395865       14.0211107718        1.2367348734  MEMB      120             0.0000000000
     13883       120  OSM       H16F            9.2350803089       12.9508038396        1.2684484042  MEMB      120             0.0000000000
     13884       120  OSM       H16G            7.9702050686       14.2131361784        0.7276240196  MEMB      120             0.0000000000
     13885       120  OSM       C17F            8.8823527027       14.7475934150        2.5675183306  MEMB      120             0.0000000000
     13886       120  OSM       H17F            9.8249855511       14.5097265659        3.1052764057  MEMB      120             0.0000000000
     13887       120  OSM       H17G            8.0781960227       14.3646201647        3.2315853802  MEMB      120             0.0000000000
     13888       120  OSM       C18F            8.5465380252       16.2740001366        2.3435471038  MEMB      120             0.0000000000
     13889       120  OSM       H18F            9.4655723033       16.8893215970        2.2382995115  MEMB      120             0.0000000000
     13890       120  OSM       H18G            8.0322739130       16.6501765627        3.2536810599  MEMB      120             0.0000000000
     13891       120  OSM       H18H            7.8356697364       16.2047734885        1.4925500775  MEMB      120             0.0000000000
     13892       121  OSM       N             -11.4434126960      -18.0137642243      -21.8837166338  MEMB      121             0.0000000000
     13893       121  OSM       C15           -11.6321751594      -17.5438899704      -20.5265284088  MEMB      121             0.0000000000
     13894       121  OSM       H15A          -11.8206705652      -16.4820044869      -20.5836980047  MEMB      121             0.0000000000
     13895       121  OSM       H15B          -10.6602421654      -17.5684400767      -20.0562693272  MEMB      121             0.0000000000
     13896       121  OSM       H15C          -12.4639274697      -18.0707937814      -20.0827261376  MEMB      121             0.0000000000
     13897       121  OSM       C14           -12.5616054070      -17.4457220047      -22.7399974013  MEMB      121             0.0000000000
     13898       121  OSM       H14A          -13.5141160228      -17.3880813639      -22.2342293692  MEMB      121             0.0000000000
     13899       121  OSM       H14B          -12.6218901352      -18.0468141456      -23.6352370521  MEMB      121             0.0000000000
     13900       121  OSM       H14C          -12.2673042961      -16.4311574285      -22.9645982110  MEMB      121             0.0000000000
     13901       121  OSM       C13           -10.0938655146      -17.6045553010      -22.4620651252  MEMB      121             0.0000000000
     13902       121  OSM       H13A           -9.9991293142      -17.7980738253      -23.5203541947  MEMB      121             0.0000000000
     13903       121  OSM       H13B           -9.2967303904      -18.1772654152      -22.0115334785  MEMB      121             0.0000000000
     13904       121  OSM       H13C           -9.8796783542      -16.5711094289      -22.2329066389  MEMB      121             0.0000000000
     13905       121  OSM       C12           -11.5770778861      -19.5182987331      -21.7838622325  MEMB      121             0.0000000000
     13906       121  OSM       H12A          -11.5991115960      -19.8909911139      -22.7972797355  MEMB      121             0.0000000000
     13907       121  OSM       H12B          -12.5958066686      -19.7553171621      -21.5147637210  MEMB      121             0.0000000000
     13908       121  OSM       C11           -10.6083417629      -20.3130516911      -20.8853679506  MEMB      121             0.0000000000
     13909       121  OSM       H11A          -10.9569992521      -21.3662986471      -20.9439330544  MEMB      121             0.0000000000
     13910       121  OSM       H11B          -10.8004626898      -20.0081297655      -19.8344478489  MEMB      121             0.0000000000
     13911       121  OSM       P              -8.1018466199      -19.8783095276      -20.1691645411  MEMB      121             0.0000000000
     13912       121  OSM       O13            -7.5345735810      -21.1195648434      -19.5901540240  MEMB      121             0.0000000000
     13913       121  OSM       O14            -7.1409860111      -18.8767078656      -20.6752623915  MEMB      121             0.0000000000
     13914       121  OSM       O11            -8.9431875533      -19.1786706938      -19.0069688313  MEMB      121             0.0000000000
     13915       121  OSM       O12            -9.2379211934      -20.2574077604      -21.2769124556  MEMB      121             0.0000000000
     13916       121  OSM       C1S            -8.4177601558      -18.7539943906      -17.7839644919  MEMB      121             0.0000000000
     13917       121  OSM       H1S            -7.7281720786      -17.9209057748      -18.0384298157  MEMB      121             0.0000000000
     13918       121  OSM       H1T            -7.8320498491      -19.5300581851      -17.2463871009  MEMB      121             0.0000000000
     13919       121  OSM       NF             -8.8277687940      -17.6137722019      -15.6090170452  MEMB      121             0.0000000000
     13920       121  OSM       HNF            -8.9054131591      -18.2162817645      -14.8184713861  MEMB      121             0.0000000000
     13921       121  OSM       C2S            -9.5339898282      -18.2163129774      -16.7660046896  MEMB      121             0.0000000000
     13922       121  OSM       H2S           -10.1139121368      -17.4207768076      -17.2809155780  MEMB      121             0.0000000000
     13923       121  OSM       C3S           -10.4391917228      -19.3554764473      -16.2524220955  MEMB      121             0.0000000000
     13924       121  OSM       H3S            -9.7384751754      -20.1278908351      -15.8694164172  MEMB      121             0.0000000000
     13925       121  OSM       O3            -11.1974435415      -19.9315558777      -17.3646885812  MEMB      121             0.0000000000
     13926       121  OSM       HO3           -10.8832499658      -19.6640441556      -18.2314756862  MEMB      121             0.0000000000
     13927       121  OSM       C4S           -11.4881974970      -18.9268545773      -15.2136757869  MEMB      121             0.0000000000
     13928       121  OSM       H4S           -12.2677047511      -18.2107592323      -15.5129681558  MEMB      121             0.0000000000
     13929       121  OSM       C5S           -11.4521019935      -19.2046094055      -13.9640105256  MEMB      121             0.0000000000
     13930       121  OSM       H5S           -10.5533281190      -19.7204112138      -13.5950199963  MEMB      121             0.0000000000
     13931       121  OSM       C6S           -12.4053641715      -18.7920264313      -12.9045247676  MEMB      121             0.0000000000
     13932       121  OSM       H6S           -12.3845719096      -19.7617377461      -12.3627238327  MEMB      121             0.0000000000
     13933       121  OSM       H6T           -13.3602987989      -18.4240985743      -13.3370176104  MEMB      121             0.0000000000
     13934       121  OSM       C7S           -11.9033707194      -17.5501760859      -12.0204542950  MEMB      121             0.0000000000
     13935       121  OSM       H7S           -11.9173294522      -16.6239315365      -12.6338034825  MEMB      121             0.0000000000
     13936       121  OSM       H7T           -10.8624232360      -17.7638650140      -11.6962840275  MEMB      121             0.0000000000
     13937       121  OSM       C8S           -12.7199846146      -17.2771435992      -10.7607693685  MEMB      121             0.0000000000
     13938       121  OSM       H8S           -12.3608751914      -17.8913937457       -9.9075059337  MEMB      121             0.0000000000
     13939       121  OSM       H8T           -13.7528517686      -17.6483490134      -10.9331420329  MEMB      121             0.0000000000
     13940       121  OSM       C9S           -12.7542214948      -15.8409895930      -10.4889184081  MEMB      121             0.0000000000
     13941       121  OSM       H9S           -13.5045353139      -15.3772354323      -11.1644053131  MEMB      121             0.0000000000
     13942       121  OSM       H9T           -11.7796376872      -15.4188666886      -10.8149849915  MEMB      121             0.0000000000
     13943       121  OSM       C10S          -12.9912679791      -15.5710643088       -9.0596314223  MEMB      121             0.0000000000
     13944       121  OSM       H10S          -13.7983035597      -16.1944459293       -8.6187121843  MEMB      121             0.0000000000
     13945       121  OSM       H10T          -13.2637772126      -14.4940035856       -9.0591612184  MEMB      121             0.0000000000
     13946       121  OSM       C11S          -11.7509815567      -15.6734551694       -8.0942375541  MEMB      121             0.0000000000
     13947       121  OSM       H11S          -10.9763675892      -14.9557456551       -8.4394726687  MEMB      121             0.0000000000
     13948       121  OSM       H11T          -11.2836419639      -16.6632485791       -8.2845629140  MEMB      121             0.0000000000
     13949       121  OSM       C12S          -11.9778645611      -15.4295993732       -6.5830120419  MEMB      121             0.0000000000
     13950       121  OSM       H12S          -12.6902399068      -16.2180567309       -6.2587018559  MEMB      121             0.0000000000
     13951       121  OSM       H12T          -12.4130907749      -14.4103638562       -6.5051755620  MEMB      121             0.0000000000
     13952       121  OSM       C13S          -10.6761592820      -15.4064505237       -5.7763820200  MEMB      121             0.0000000000
     13953       121  OSM       H13S          -11.0043830678      -15.3373309926       -4.7172265674  MEMB      121             0.0000000000
     13954       121  OSM       H13T          -10.0538656839      -14.5693125819       -6.1588373146  MEMB      121             0.0000000000
     13955       121  OSM       C14S           -9.8421557704      -16.6782823509       -5.8662331924  MEMB      121             0.0000000000
     13956       121  OSM       H14S           -9.5630153863      -17.0511148506       -6.8748938298  MEMB      121             0.0000000000
     13957       121  OSM       H14T          -10.4641919748      -17.3887298588       -5.2808642569  MEMB      121             0.0000000000
     13958       121  OSM       C15S           -8.5491079922      -16.8470573410       -5.1033630374  MEMB      121             0.0000000000
     13959       121  OSM       H15S           -7.8319621104      -16.2495849675       -5.7058991367  MEMB      121             0.0000000000
     13960       121  OSM       H15T           -8.1261130574      -17.8672093610       -4.9821773011  MEMB      121             0.0000000000
     13961       121  OSM       C16S           -8.6053358252      -16.2069885306       -3.7324150030  MEMB      121             0.0000000000
     13962       121  OSM       H16S           -9.4982902041      -16.6064443711       -3.2057373719  MEMB      121             0.0000000000
     13963       121  OSM       H16T           -8.5969299194      -15.0977540670       -3.7944571036  MEMB      121             0.0000000000
     13964       121  OSM       C17S           -7.3807930545      -16.5409351205       -2.8153329403  MEMB      121             0.0000000000
     13965       121  OSM       H17S           -6.3916234937      -16.4050461501       -3.3025699439  MEMB      121             0.0000000000
     13966       121  OSM       H17T           -7.5311358168      -17.6102502422       -2.5540228515  MEMB      121             0.0000000000
     13967       121  OSM       C18S           -7.3697985642      -15.7205012741       -1.4828762606  MEMB      121             0.0000000000
     13968       121  OSM       H18S           -8.2569659888      -15.8977957955       -0.8380346895  MEMB      121             0.0000000000
     13969       121  OSM       H18T           -7.3585067760      -14.6332403714       -1.7110368103  MEMB      121             0.0000000000
     13970       121  OSM       H18U           -6.4433218600      -15.8996364889       -0.8964708503  MEMB      121             0.0000000000
     13971       121  OSM       C1F            -8.0054850478      -16.5547953592      -15.5707520470  MEMB      121             0.0000000000
     13972       121  OSM       OF             -7.5602652025      -15.9000428120      -16.5540289058  MEMB      121             0.0000000000
     13973       121  OSM       C2F            -7.4993253000      -16.2484874020      -14.2093558516  MEMB      121             0.0000000000
     13974       121  OSM       H2F            -6.6194699909      -15.5701520188      -14.2153793419  MEMB      121             0.0000000000
     13975       121  OSM       H2G            -7.1998101315      -17.1432299340      -13.6228002276  MEMB      121             0.0000000000
     13976       121  OSM       C3F            -8.7633050040      -15.7568186464      -13.3762650219  MEMB      121             0.0000000000
     13977       121  OSM       H3F            -9.4515773948      -16.6270471965      -13.3187794199  MEMB      121             0.0000000000
     13978       121  OSM       H3G            -9.2726129635      -14.9430902460      -13.9355258996  MEMB      121             0.0000000000
     13979       121  OSM       C4F            -8.3042377615      -15.1836232868      -11.9373578056  MEMB      121             0.0000000000
     13980       121  OSM       H4F            -9.2827782511      -14.9087227113      -11.4887948123  MEMB      121             0.0000000000
     13981       121  OSM       H4G            -7.8149674272      -14.1924435448      -12.0491538605  MEMB      121             0.0000000000
     13982       121  OSM       C5F            -7.3924650455      -15.9916843409      -11.0815898747  MEMB      121             0.0000000000
     13983       121  OSM       H5F            -7.0752271249      -15.3828298225      -10.2081037984  MEMB      121             0.0000000000
     13984       121  OSM       H5G            -6.5005094326      -16.3076912683      -11.6637197804  MEMB      121             0.0000000000
     13985       121  OSM       C6F            -7.9646220852      -17.2775428086      -10.4747734943  MEMB      121             0.0000000000
     13986       121  OSM       H6F            -8.5376053091      -17.9151310711      -11.1815210526  MEMB      121             0.0000000000
     13987       121  OSM       H6G            -8.7402368485      -17.0125667792       -9.7247527663  MEMB      121             0.0000000000
     13988       121  OSM       C7F            -6.8885162409      -18.1490156959      -10.0141628879  MEMB      121             0.0000000000
     13989       121  OSM       H7F            -6.2920461776      -17.6199146748       -9.2404731413  MEMB      121             0.0000000000
     13990       121  OSM       H7G            -6.3212103275      -18.6051322466      -10.8534736664  MEMB      121             0.0000000000
     13991       121  OSM       C8F            -7.3335713717      -19.3140808606       -9.1663468250  MEMB      121             0.0000000000
     13992       121  OSM       H8F            -7.9508680069      -18.9593219857       -8.3134614487  MEMB      121             0.0000000000
     13993       121  OSM       H8G            -6.4263369392      -19.8389290994       -8.7978614415  MEMB      121             0.0000000000
     13994       121  OSM       C9F            -8.1213549114      -20.3722913706       -9.8926606949  MEMB      121             0.0000000000
     13995       121  OSM       H9F            -7.4899102339      -21.0093910256      -10.5293569081  MEMB      121             0.0000000000
     13996       121  OSM       C10F           -9.4242628811      -20.6116573641       -9.8526495981  MEMB      121             0.0000000000
     13997       121  OSM       H10F           -9.7592699901      -21.5765725888      -10.2609500122  MEMB      121             0.0000000000
     13998       121  OSM       C11F          -10.3750077179      -19.8815017591       -8.9544817166  MEMB      121             0.0000000000
     13999       121  OSM       H11F          -11.2897725874      -19.7441518610       -9.5698365698  MEMB      121             0.0000000000
     14000       121  OSM       H11G          -10.1377932047      -18.8952012185       -8.5014246958  MEMB      121             0.0000000000
     14001       121  OSM       C12F          -10.8179170526      -20.7810090884       -7.7854957960  MEMB      121             0.0000000000
     14002       121  OSM       H12F           -9.8957000009      -20.9657504365       -7.1941347409  MEMB      121             0.0000000000
     14003       121  OSM       H12G          -11.0886218466      -21.7956038567       -8.1483145028  MEMB      121             0.0000000000
     14004       121  OSM       C13F          -11.9370588176      -20.1148795489       -6.9339230302  MEMB      121             0.0000000000
     14005       121  OSM       H13F          -12.8762618989      -19.7717361539       -7.4181452597  MEMB      121             0.0000000000
     14006       121  OSM       H13G          -11.4858181817      -19.2500846437       -6.4021030611  MEMB      121             0.0000000000
     14007       121  OSM       C14F          -12.6266442826      -21.1139684581       -6.0389307919  MEMB      121             0.0000000000
     14008       121  OSM       H14F          -13.1076361270      -21.9004329229       -6.6589641203  MEMB      121             0.0000000000
     14009       121  OSM       H14G          -13.3805483535      -20.6358974658       -5.3775705181  MEMB      121             0.0000000000
     14010       121  OSM       C15F          -11.8049200860      -21.8998464938       -5.0238469920  MEMB      121             0.0000000000
     14011       121  OSM       H15F          -11.1536172983      -22.6604147799       -5.5051587877  MEMB      121             0.0000000000
     14012       121  OSM       H15G          -12.4744811350      -22.3959973328       -4.2891060829  MEMB      121             0.0000000000
     14013       121  OSM       C16F          -10.6989784048      -21.1936168206       -4.1582798649  MEMB      121             0.0000000000
     14014       121  OSM       H16F           -9.9242448198      -20.8814646684       -4.8908563694  MEMB      121             0.0000000000
     14015       121  OSM       H16G          -10.1798440990      -21.9589246651       -3.5425486924  MEMB      121             0.0000000000
     14016       121  OSM       C17F          -11.1337844717      -20.0209964897       -3.3655123003  MEMB      121             0.0000000000
     14017       121  OSM       H17F          -11.6123593216      -19.2988616598       -4.0610759599  MEMB      121             0.0000000000
     14018       121  OSM       H17G          -10.2643795252      -19.4296386239       -3.0066926059  MEMB      121             0.0000000000
     14019       121  OSM       C18F          -12.0987863813      -20.4055266014       -2.2595811167  MEMB      121             0.0000000000
     14020       121  OSM       H18F          -11.4486213936      -20.6892434654       -1.4045302484  MEMB      121             0.0000000000
     14021       121  OSM       H18G          -12.8767831651      -21.1821341495       -2.4205870888  MEMB      121             0.0000000000
     14022       121  OSM       H18H          -12.6978933518      -19.5999131051       -1.7837879174  MEMB      121             0.0000000000
     14023       122  OSM       N              16.5877609380       16.0510231440      -22.8754280124  MEMB      122             0.0000000000
     14024       122  OSM       C15            15.3484206211       15.4257764117      -22.2801951949  MEMB      122             0.0000000000
     14025       122  OSM       H15A           14.9867099257       14.8137503715      -23.0932076434  MEMB      122             0.0000000000
     14026       122  OSM       H15B           14.5153315329       16.0588587007      -22.0126706259  MEMB      122             0.0000000000
     14027       122  OSM       H15C           15.5813999275       14.7333079036      -21.4848285558  MEMB      122             0.0000000000
     14028       122  OSM       C14            17.5754470417       14.9051092303      -23.1791607983  MEMB      122             0.0000000000
     14029       122  OSM       H14A           17.1082398391       14.4223043282      -24.0247475448  MEMB      122             0.0000000000
     14030       122  OSM       H14B           17.7013870326       14.2651948076      -22.3183190721  MEMB      122             0.0000000000
     14031       122  OSM       H14C           18.5601523521       15.2523749553      -23.4551355273  MEMB      122             0.0000000000
     14032       122  OSM       C13            16.1919916603       16.7543223933      -24.1472310105  MEMB      122             0.0000000000
     14033       122  OSM       H13A           15.5930691650       17.6242311884      -23.9215081290  MEMB      122             0.0000000000
     14034       122  OSM       H13B           15.7835847006       16.0344689363      -24.8410713007  MEMB      122             0.0000000000
     14035       122  OSM       H13C           17.1367118531       17.0711730977      -24.5637755883  MEMB      122             0.0000000000
     14036       122  OSM       C12            17.1871902611       17.0574269460      -21.8936999267  MEMB      122             0.0000000000
     14037       122  OSM       H12A           16.3896088392       17.7660298927      -21.7259328553  MEMB      122             0.0000000000
     14038       122  OSM       H12B           17.9154786288       17.6931125072      -22.3752598049  MEMB      122             0.0000000000
     14039       122  OSM       C11            17.8043297500       16.4533410608      -20.6302110186  MEMB      122             0.0000000000
     14040       122  OSM       H11A           17.9147333283       17.3200025117      -19.9438947129  MEMB      122             0.0000000000
     14041       122  OSM       H11B           18.8444762964       16.1720792828      -20.9009654137  MEMB      122             0.0000000000
     14042       122  OSM       P              17.7725690472       14.3076047970      -19.2042541753  MEMB      122             0.0000000000
     14043       122  OSM       O13            16.8419499185       13.8896779558      -18.1076038625  MEMB      122             0.0000000000
     14044       122  OSM       O14            18.2931675957       13.2112931687      -20.0433789351  MEMB      122             0.0000000000
     14045       122  OSM       O11            18.9749261197       15.0734021099      -18.5982062139  MEMB      122             0.0000000000
     14046       122  OSM       O12            17.0260863721       15.4468359975      -20.0406308566  MEMB      122             0.0000000000
     14047       122  OSM       C1S            18.8099672729       16.1346711636      -17.6261822941  MEMB      122             0.0000000000
     14048       122  OSM       H1S            17.7730310641       16.4869098580      -17.8132977564  MEMB      122             0.0000000000
     14049       122  OSM       H1T            19.5219639082       16.9773465494      -17.7576364166  MEMB      122             0.0000000000
     14050       122  OSM       NF             18.4794576385       16.4227720082      -15.3466201445  MEMB      122             0.0000000000
     14051       122  OSM       HNF            19.1114822102       17.1338208392      -15.0483521451  MEMB      122             0.0000000000
     14052       122  OSM       C2S            19.0053376643       15.4719507480      -16.2361121244  MEMB      122             0.0000000000
     14053       122  OSM       H2S            18.2803581428       14.6311107164      -16.1947161306  MEMB      122             0.0000000000
     14054       122  OSM       C3S            20.5174150964       15.1070096152      -16.1257806457  MEMB      122             0.0000000000
     14055       122  OSM       H3S            21.1436380398       15.9213240979      -16.5489326223  MEMB      122             0.0000000000
     14056       122  OSM       O3             20.6331291747       13.8741743767      -16.8426697377  MEMB      122             0.0000000000
     14057       122  OSM       HO3            19.7171207095       13.6362993010      -17.0037415085  MEMB      122             0.0000000000
     14058       122  OSM       C4S            20.8640047182       14.7077466826      -14.7570946446  MEMB      122             0.0000000000
     14059       122  OSM       H4S            20.4102123567       13.8172353405      -14.2976797774  MEMB      122             0.0000000000
     14060       122  OSM       C5S            21.6447185390       15.5236166251      -14.0732650687  MEMB      122             0.0000000000
     14061       122  OSM       H5S            22.0003630781       16.4359170710      -14.5744884633  MEMB      122             0.0000000000
     14062       122  OSM       C6S            22.0614596189       15.3620680119      -12.6023556179  MEMB      122             0.0000000000
     14063       122  OSM       H6S            21.9869667343       16.3794121660      -12.1621481311  MEMB      122             0.0000000000
     14064       122  OSM       H6T            23.1088501383       14.9932631911      -12.6380912232  MEMB      122             0.0000000000
     14065       122  OSM       C7S            21.2462075772       14.3365853172      -11.6641406135  MEMB      122             0.0000000000
     14066       122  OSM       H7S            21.8489067662       14.3729711203      -10.7315366747  MEMB      122             0.0000000000
     14067       122  OSM       H7T            21.1869452501       13.3596493728      -12.1898830101  MEMB      122             0.0000000000
     14068       122  OSM       C8S            19.8076947282       14.7801807750      -11.4622759540  MEMB      122             0.0000000000
     14069       122  OSM       H8S            19.3846048979       14.8965577087      -12.4829482196  MEMB      122             0.0000000000
     14070       122  OSM       H8T            19.6762559035       15.6977378323      -10.8497932588  MEMB      122             0.0000000000
     14071       122  OSM       C9S            18.9743291536       13.6481676138      -10.8106417152  MEMB      122             0.0000000000
     14072       122  OSM       H9S            19.2573401564       12.7232746839      -11.3572666228  MEMB      122             0.0000000000
     14073       122  OSM       H9T            17.9093681435       13.8596098663      -11.0461645218  MEMB      122             0.0000000000
     14074       122  OSM       C10S           19.3087153546       13.1950854844       -9.3830059115  MEMB      122             0.0000000000
     14075       122  OSM       H10S           20.3986487221       12.9890838912       -9.3203170291  MEMB      122             0.0000000000
     14076       122  OSM       H10T           18.7378424770       12.3117952333       -9.0249222922  MEMB      122             0.0000000000
     14077       122  OSM       C11S           18.9643033307       14.3389696204       -8.4123282183  MEMB      122             0.0000000000
     14078       122  OSM       H11S           17.8740677038       14.1915600802       -8.2574816730  MEMB      122             0.0000000000
     14079       122  OSM       H11T           19.0319702370       15.3814331590       -8.7904973741  MEMB      122             0.0000000000
     14080       122  OSM       C12S           19.6061862722       14.2550221461       -6.9882458149  MEMB      122             0.0000000000
     14081       122  OSM       H12S           19.3468605919       15.2720197358       -6.6238458446  MEMB      122             0.0000000000
     14082       122  OSM       H12T           20.7003454949       14.3108723384       -7.1726832049  MEMB      122             0.0000000000
     14083       122  OSM       C13S           19.1203597578       13.1136812161       -6.1315792060  MEMB      122             0.0000000000
     14084       122  OSM       H13S           18.9769556349       12.1121085483       -6.5905002081  MEMB      122             0.0000000000
     14085       122  OSM       H13T           18.0594534946       13.3728339987       -5.9275237443  MEMB      122             0.0000000000
     14086       122  OSM       C14S           19.8691872093       12.7875409557       -4.8938208148  MEMB      122             0.0000000000
     14087       122  OSM       H14S           20.9651620684       12.6848438070       -5.0441992826  MEMB      122             0.0000000000
     14088       122  OSM       H14T           19.5929879683       11.7786155284       -4.5195161763  MEMB      122             0.0000000000
     14089       122  OSM       C15S           19.7497422569       13.6755825230       -3.5994147392  MEMB      122             0.0000000000
     14090       122  OSM       H15S           20.3496549364       13.2518284476       -2.7658343388  MEMB      122             0.0000000000
     14091       122  OSM       H15T           18.6848129823       13.7590963411       -3.2940102450  MEMB      122             0.0000000000
     14092       122  OSM       C16S           20.3764080168       15.0645234809       -3.7393732825  MEMB      122             0.0000000000
     14093       122  OSM       H16S           19.6596102864       15.7829943231       -4.1913926873  MEMB      122             0.0000000000
     14094       122  OSM       H16T           21.3185713110       15.0404281926       -4.3276492173  MEMB      122             0.0000000000
     14095       122  OSM       C17S           20.7603646021       15.7393147614       -2.3585431070  MEMB      122             0.0000000000
     14096       122  OSM       H17S           21.6706838064       16.3406092565       -2.5685058972  MEMB      122             0.0000000000
     14097       122  OSM       H17T           20.9912308744       14.8950256351       -1.6742929908  MEMB      122             0.0000000000
     14098       122  OSM       C18S           19.6971647592       16.8120411851       -1.9060439623  MEMB      122             0.0000000000
     14099       122  OSM       H18S           18.7458494842       16.2806009118       -1.6895002908  MEMB      122             0.0000000000
     14100       122  OSM       H18T           19.4315207775       17.6527140184       -2.5820785875  MEMB      122             0.0000000000
     14101       122  OSM       H18U           19.9932526569       17.1849510257       -0.9022547269  MEMB      122             0.0000000000
     14102       122  OSM       C1F            17.1902472032       16.4715515367      -14.9395388623  MEMB      122             0.0000000000
     14103       122  OSM       OF             16.3045436594       15.6471494984      -15.1698078963  MEMB      122             0.0000000000
     14104       122  OSM       C2F            16.6781166742       17.7065570995      -14.2756986669  MEMB      122             0.0000000000
     14105       122  OSM       H2F            15.8961464913       18.1175439309      -14.9494442951  MEMB      122             0.0000000000
     14106       122  OSM       H2G            17.4274747336       18.4888658287      -14.0291696655  MEMB      122             0.0000000000
     14107       122  OSM       C3F            15.9797875387       17.4465560451      -12.8997678665  MEMB      122             0.0000000000
     14108       122  OSM       H3F            15.1248590634       16.7660922560      -13.1007344663  MEMB      122             0.0000000000
     14109       122  OSM       H3G            15.4103440679       18.3389127713      -12.5624923495  MEMB      122             0.0000000000
     14110       122  OSM       C4F            16.9720032682       16.9695442782      -11.8260099187  MEMB      122             0.0000000000
     14111       122  OSM       H4F            17.8325474599       17.6598639383      -11.9573241966  MEMB      122             0.0000000000
     14112       122  OSM       H4G            17.4149132525       16.0015106182      -12.1439135846  MEMB      122             0.0000000000
     14113       122  OSM       C5F            16.5962466966       16.9127014878      -10.2987674978  MEMB      122             0.0000000000
     14114       122  OSM       H5F            17.4356130243       16.6996739097       -9.6027766708  MEMB      122             0.0000000000
     14115       122  OSM       H5G            15.8273895324       16.1153463536      -10.2127186689  MEMB      122             0.0000000000
     14116       122  OSM       C6F            15.8348888488       18.1715036343       -9.7882711495  MEMB      122             0.0000000000
     14117       122  OSM       H6F            14.8782718138       18.1985588229      -10.3526056426  MEMB      122             0.0000000000
     14118       122  OSM       H6G            16.4634632922       19.0741366812       -9.9446957629  MEMB      122             0.0000000000
     14119       122  OSM       C7F            15.4993759616       18.1006018021       -8.2900032429  MEMB      122             0.0000000000
     14120       122  OSM       H7F            15.1356605093       19.0811993531       -7.9152234682  MEMB      122             0.0000000000
     14121       122  OSM       H7G            16.4551918603       18.0247477709       -7.7287698191  MEMB      122             0.0000000000
     14122       122  OSM       C8F            14.6369557515       16.8849153687       -7.8664664965  MEMB      122             0.0000000000
     14123       122  OSM       H8F            15.2935803918       15.9891583657       -7.8384581064  MEMB      122             0.0000000000
     14124       122  OSM       H8G            13.8599721491       16.8237223461       -8.6582203683  MEMB      122             0.0000000000
     14125       122  OSM       C9F            13.9006231680       17.1001695634       -6.5724182829  MEMB      122             0.0000000000
     14126       122  OSM       H9F            12.8654548256       17.4629209305       -6.6551127938  MEMB      122             0.0000000000
     14127       122  OSM       C10F           14.2670835623       16.8143023362       -5.3197818756  MEMB      122             0.0000000000
     14128       122  OSM       H10F           13.6601547138       17.0388623786       -4.4302826492  MEMB      122             0.0000000000
     14129       122  OSM       C11F           15.5569046733       16.2108173504       -5.0423429991  MEMB      122             0.0000000000
     14130       122  OSM       H11F           16.3860810383       16.3375707871       -5.7708495161  MEMB      122             0.0000000000
     14131       122  OSM       H11G           15.4382149743       15.1222234656       -4.8547338620  MEMB      122             0.0000000000
     14132       122  OSM       C12F           16.1559785253       16.9235047194       -3.7826448778  MEMB      122             0.0000000000
     14133       122  OSM       H12F           15.8582931045       17.9788628550       -3.9613165610  MEMB      122             0.0000000000
     14134       122  OSM       H12G           17.2614859719       16.9299153228       -3.8927943966  MEMB      122             0.0000000000
     14135       122  OSM       C13F           15.6102915933       16.4501763130       -2.3755164791  MEMB      122             0.0000000000
     14136       122  OSM       H13F           16.1039021019       15.4611280357       -2.2639232641  MEMB      122             0.0000000000
     14137       122  OSM       H13G           14.5084213880       16.3254016275       -2.3074394374  MEMB      122             0.0000000000
     14138       122  OSM       C14F           16.0363951998       17.3125661123       -1.1712309314  MEMB      122             0.0000000000
     14139       122  OSM       H14F           17.1366517032       17.4604737490       -1.2145893538  MEMB      122             0.0000000000
     14140       122  OSM       H14G           15.6043850853       16.8203838900       -0.2737655325  MEMB      122             0.0000000000
     14141       122  OSM       C15F           15.5593727280       18.8050148321       -1.2697079686  MEMB      122             0.0000000000
     14142       122  OSM       H15F           16.2555122572       19.2749508465       -1.9969434988  MEMB      122             0.0000000000
     14143       122  OSM       H15G           15.7954915410       19.2603696377       -0.2842011615  MEMB      122             0.0000000000
     14144       122  OSM       C16F           14.1141974037       19.1090063238       -1.5408726176  MEMB      122             0.0000000000
     14145       122  OSM       H16F           13.8745291760       18.6029075487       -2.5004265516  MEMB      122             0.0000000000
     14146       122  OSM       H16G           14.0015193719       20.1913463092       -1.7648476245  MEMB      122             0.0000000000
     14147       122  OSM       C17F           12.9873077732       18.6599230417       -0.5265394135  MEMB      122             0.0000000000
     14148       122  OSM       H17F           13.2302269878       17.6101018388       -0.2560081616  MEMB      122             0.0000000000
     14149       122  OSM       H17G           11.9873240283       18.6444606093       -1.0103923317  MEMB      122             0.0000000000
     14150       122  OSM       C18F           13.0825215040       19.4702611951        0.8127711766  MEMB      122             0.0000000000
     14151       122  OSM       H18F           12.5962711552       18.8308587574        1.5802647983  MEMB      122             0.0000000000
     14152       122  OSM       H18G           12.6143257985       20.4772056554        0.7784678568  MEMB      122             0.0000000000
     14153       122  OSM       H18H           14.1421477140       19.6712571310        1.0794417065  MEMB      122             0.0000000000
     14154       123  CHL1      C3            -16.3001622752      -15.1904735534      -17.3143400000  MEMB      123             0.0000000000
     14155       123  CHL1      H3            -16.0920953418      -16.1525464227      -16.7991300000  MEMB      123             0.0000000000
     14156       123  CHL1      O3            -16.7765685248      -15.3066606466      -18.6856600000  MEMB      123             0.0000000000
     14157       123  CHL1      H3'           -17.0790443683      -14.4701095690      -19.0466300000  MEMB      123             0.0000000000
     14158       123  CHL1      C4            -17.4267526700      -14.5517799719      -16.5121900000  MEMB      123             0.0000000000
     14159       123  CHL1      H4A           -17.7427292990      -13.5957299433      -16.9817300000  MEMB      123             0.0000000000
     14160       123  CHL1      H4B           -18.3279319685      -15.1786800954      -16.6830400000  MEMB      123             0.0000000000
     14161       123  CHL1      C5            -17.0893040377      -14.2257224153      -15.0196300000  MEMB      123             0.0000000000
     14162       123  CHL1      C6            -17.8236978809      -14.6467265068      -13.9526700000  MEMB      123             0.0000000000
     14163       123  CHL1      H6            -18.8046013647      -15.1130315212      -14.1269900000  MEMB      123             0.0000000000
     14164       123  CHL1      C7            -17.5694285517      -14.2661779893      -12.5183900000  MEMB      123             0.0000000000
     14165       123  CHL1      H7A           -18.3780282865      -13.6376038860      -12.0878400000  MEMB      123             0.0000000000
     14166       123  CHL1      H7B           -17.4506694936      -15.1603103212      -11.8697500000  MEMB      123             0.0000000000
     14167       123  CHL1      C8            -16.3267359275      -13.3631400775      -12.3820800000  MEMB      123             0.0000000000
     14168       123  CHL1      H8            -16.6050729597      -12.3031616536      -12.5645800000  MEMB      123             0.0000000000
     14169       123  CHL1      C14           -15.7566075030      -13.5174967100      -11.0071300000  MEMB      123             0.0000000000
     14170       123  CHL1      H14           -15.4573780946      -14.5850495260      -10.9357300000  MEMB      123             0.0000000000
     14171       123  CHL1      C15           -16.7138700494      -13.3834046638       -9.8055700000  MEMB      123             0.0000000000
     14172       123  CHL1      H15A          -17.4998092812      -12.5985628182       -9.7800900000  MEMB      123             0.0000000000
     14173       123  CHL1      H15B          -17.1309973943      -14.4122765405       -9.7638000000  MEMB      123             0.0000000000
     14174       123  CHL1      C16           -15.7734764380      -13.2368528203       -8.5936300000  MEMB      123             0.0000000000
     14175       123  CHL1      H16A          -16.0697692647      -12.4076770260       -7.9161400000  MEMB      123             0.0000000000
     14176       123  CHL1      H16B          -15.6219680762      -14.1648054540       -8.0018000000  MEMB      123             0.0000000000
     14177       123  CHL1      C17           -14.3257559144      -13.1009553875       -9.1810900000  MEMB      123             0.0000000000
     14178       123  CHL1      H17           -13.9025388636      -14.1281759804       -9.1776300000  MEMB      123             0.0000000000
     14179       123  CHL1      C13           -14.5370988627      -12.7306633596      -10.6705800000  MEMB      123             0.0000000000
     14180       123  CHL1      C18           -14.8710190060      -11.2126065737      -10.7684100000  MEMB      123             0.0000000000
     14181       123  CHL1      H18A          -15.5654406041      -11.0025852422       -9.9269900000  MEMB      123             0.0000000000
     14182       123  CHL1      H18B          -13.9860081191      -10.5680200326      -10.5797800000  MEMB      123             0.0000000000
     14183       123  CHL1      H18C          -15.2888672059      -10.8752913716      -11.7410000000  MEMB      123             0.0000000000
     14184       123  CHL1      C12           -13.4259165210      -13.2674226942      -11.6861600000  MEMB      123             0.0000000000
     14185       123  CHL1      H12A          -12.3995412587      -12.8713926387      -11.5311400000  MEMB      123             0.0000000000
     14186       123  CHL1      H12B          -13.3899536830      -14.3771485095      -11.7252800000  MEMB      123             0.0000000000
     14187       123  CHL1      C11           -13.8500918634      -13.0426570708      -13.0993400000  MEMB      123             0.0000000000
     14188       123  CHL1      H11A          -13.7748902666      -11.9812785286      -13.4189200000  MEMB      123             0.0000000000
     14189       123  CHL1      H11B          -13.0404996457      -13.5197261413      -13.6920400000  MEMB      123             0.0000000000
     14190       123  CHL1      C9            -15.1941916534      -13.6911801500      -13.4586900000  MEMB      123             0.0000000000
     14191       123  CHL1      H9            -14.8964886806      -14.7522239112      -13.3177000000  MEMB      123             0.0000000000
     14192       123  CHL1      C10           -15.6708373287      -13.5371134988      -14.9174900000  MEMB      123             0.0000000000
     14193       123  CHL1      C19           -15.8803334664      -12.0141366696      -15.1521300000  MEMB      123             0.0000000000
     14194       123  CHL1      H19A          -16.3162241435      -11.9557342030      -16.1723800000  MEMB      123             0.0000000000
     14195       123  CHL1      H19B          -16.5769411127      -11.6433739294      -14.3700900000  MEMB      123             0.0000000000
     14196       123  CHL1      H19C          -15.0145039574      -11.3338534769      -15.3000600000  MEMB      123             0.0000000000
     14197       123  CHL1      C1            -14.5764338326      -14.1141858181      -15.8370300000  MEMB      123             0.0000000000
     14198       123  CHL1      H1A           -13.6952622658      -13.4457466855      -15.7319100000  MEMB      123             0.0000000000
     14199       123  CHL1      H1B           -14.3378214454      -15.1202880804      -15.4306600000  MEMB      123             0.0000000000
     14200       123  CHL1      C2            -15.0691122208      -14.2918801629      -17.2394500000  MEMB      123             0.0000000000
     14201       123  CHL1      H2A           -14.3336459638      -14.7962247765      -17.9020600000  MEMB      123             0.0000000000
     14202       123  CHL1      H2B           -15.2198654563      -13.3586403481      -17.8231000000  MEMB      123             0.0000000000
     14203       123  CHL1      C20           -13.3912176477      -12.2370262999       -8.2604400000  MEMB      123             0.0000000000
     14204       123  CHL1      H20           -13.7088583722      -11.1763268581       -8.3518800000  MEMB      123             0.0000000000
     14205       123  CHL1      C21           -11.9236227901      -12.3775946620       -8.7763600000  MEMB      123             0.0000000000
     14206       123  CHL1      H21A          -11.2777500542      -11.6963544098       -8.1821600000  MEMB      123             0.0000000000
     14207       123  CHL1      H21B          -11.8902744810      -12.0017410517       -9.8213200000  MEMB      123             0.0000000000
     14208       123  CHL1      H21C          -11.5381202157      -13.4178703791       -8.7168000000  MEMB      123             0.0000000000
     14209       123  CHL1      C22           -13.5449366496      -12.6621016820       -6.8427800000  MEMB      123             0.0000000000
     14210       123  CHL1      H22A          -14.5277193892      -12.4203282919       -6.3845200000  MEMB      123             0.0000000000
     14211       123  CHL1      H22B          -13.4447864063      -13.7684790019       -6.8575700000  MEMB      123             0.0000000000
     14212       123  CHL1      C23           -12.5274029399      -12.0681269819       -5.8519000000  MEMB      123             0.0000000000
     14213       123  CHL1      H23A          -11.5090555898      -12.5080822667       -5.9129900000  MEMB      123             0.0000000000
     14214       123  CHL1      H23B          -12.4805680709      -10.9673031554       -5.9944600000  MEMB      123             0.0000000000
     14215       123  CHL1      C24           -12.9023762623      -12.3284840504       -4.3802000000  MEMB      123             0.0000000000
     14216       123  CHL1      H24A          -13.8986432476      -11.8740184937       -4.1924600000  MEMB      123             0.0000000000
     14217       123  CHL1      H24B          -13.0474136643      -13.4101317197       -4.1720200000  MEMB      123             0.0000000000
     14218       123  CHL1      C25           -11.8983262575      -11.7657920500       -3.3108500000  MEMB      123             0.0000000000
     14219       123  CHL1      H25           -11.7336247743      -10.6820433301       -3.4916500000  MEMB      123             0.0000000000
     14220       123  CHL1      C26           -12.4587961332      -11.9795333090       -1.8929900000  MEMB      123             0.0000000000
     14221       123  CHL1      H26A          -13.3897454926      -11.4428667776       -1.6108200000  MEMB      123             0.0000000000
     14222       123  CHL1      H26B          -12.5580066675      -13.0590425938       -1.6497700000  MEMB      123             0.0000000000
     14223       123  CHL1      H26C          -11.6769217768      -11.5834325037       -1.2102700000  MEMB      123             0.0000000000
     14224       123  CHL1      C27           -10.6075597069      -12.5978146495       -3.2685600000  MEMB      123             0.0000000000
     14225       123  CHL1      H27A          -10.0269756258      -12.0165920260       -2.5206200000  MEMB      123             0.0000000000
     14226       123  CHL1      H27B          -10.8177193482      -13.6246903884       -2.9001900000  MEMB      123             0.0000000000
     14227       123  CHL1      H27C           -9.9916915790      -12.6541935063       -4.1915100000  MEMB      123             0.0000000000
     14228       124  CHL1      C3              3.4440476308       22.1566827082      -17.3248700000  MEMB      124             0.0000000000
     14229       124  CHL1      H3              2.6840830487       21.3935136036      -17.0521900000  MEMB      124             0.0000000000
     14230       124  CHL1      O3              3.6850120492       22.2748778918      -18.6751300000  MEMB      124             0.0000000000
     14231       124  CHL1      H3'             3.7058129656       21.3917677571      -19.0510100000  MEMB      124             0.0000000000
     14232       124  CHL1      C4              2.7777530680       23.4343487286      -16.7317400000  MEMB      124             0.0000000000
     14233       124  CHL1      H4A             3.5063832363       24.2249417610      -17.0117200000  MEMB      124             0.0000000000
     14234       124  CHL1      H4B             1.9232506584       23.6586293281      -17.4054200000  MEMB      124             0.0000000000
     14235       124  CHL1      C5              2.4189982052       23.3217819395      -15.2974500000  MEMB      124             0.0000000000
     14236       124  CHL1      C6              1.1734212553       23.5419704905      -14.8576300000  MEMB      124             0.0000000000
     14237       124  CHL1      H6              0.3849534476       23.8807291164      -15.5457900000  MEMB      124             0.0000000000
     14238       124  CHL1      C7              0.8139590499       23.5416873376      -13.4283800000  MEMB      124             0.0000000000
     14239       124  CHL1      H7A             0.1800381799       24.4384460937      -13.2602000000  MEMB      124             0.0000000000
     14240       124  CHL1      H7B             0.2190415651       22.6692636509      -13.0830000000  MEMB      124             0.0000000000
     14241       124  CHL1      C8              2.0816593568       23.6147866949      -12.5325600000  MEMB      124             0.0000000000
     14242       124  CHL1      H8              2.4126382896       24.6599641003      -12.3526000000  MEMB      124             0.0000000000
     14243       124  CHL1      C14             1.7013833650       23.2883501531      -11.0974700000  MEMB      124             0.0000000000
     14244       124  CHL1      H14             1.3141480784       22.2490921781      -11.1631100000  MEMB      124             0.0000000000
     14245       124  CHL1      C15             0.5683481054       24.1167240231      -10.4681700000  MEMB      124             0.0000000000
     14246       124  CHL1      H15A            0.5640440074       25.2187513557      -10.6090100000  MEMB      124             0.0000000000
     14247       124  CHL1      H15B           -0.3977288008       23.6702518636      -10.7870300000  MEMB      124             0.0000000000
     14248       124  CHL1      C16             0.7167738702       23.8255327745       -8.9891700000  MEMB      124             0.0000000000
     14249       124  CHL1      H16A            0.8405618661       24.8313438010       -8.5338200000  MEMB      124             0.0000000000
     14250       124  CHL1      H16B           -0.1184763587       23.1668724082       -8.6684600000  MEMB      124             0.0000000000
     14251       124  CHL1      C17             1.9953759568       22.9614344079       -8.8633500000  MEMB      124             0.0000000000
     14252       124  CHL1      H17             1.6920040779       21.9103482736       -9.0570000000  MEMB      124             0.0000000000
     14253       124  CHL1      C13             2.8400738420       23.3165682959      -10.0737400000  MEMB      124             0.0000000000
     14254       124  CHL1      C18             3.3179730752       24.8181903349       -9.9243000000  MEMB      124             0.0000000000
     14255       124  CHL1      H18A            2.4985174376       25.5652816656       -9.9925500000  MEMB      124             0.0000000000
     14256       124  CHL1      H18B            3.7201914536       25.0016607192       -8.9050400000  MEMB      124             0.0000000000
     14257       124  CHL1      H18C            4.0863779796       25.1273982479      -10.6647500000  MEMB      124             0.0000000000
     14258       124  CHL1      C12             3.9656794149       22.3313204359      -10.5486800000  MEMB      124             0.0000000000
     14259       124  CHL1      H12A            4.8677878877       22.4397319637       -9.9093300000  MEMB      124             0.0000000000
     14260       124  CHL1      H12B            3.6708294412       21.2766011168      -10.3616800000  MEMB      124             0.0000000000
     14261       124  CHL1      C11             4.4020800064       22.5144149189      -11.9753400000  MEMB      124             0.0000000000
     14262       124  CHL1      H11A            4.9587650382       23.4755146522      -12.0017200000  MEMB      124             0.0000000000
     14263       124  CHL1      H11B            5.0372850788       21.6484921260      -12.2599800000  MEMB      124             0.0000000000
     14264       124  CHL1      C9              3.2447438257       22.6742639211      -12.9989900000  MEMB      124             0.0000000000
     14265       124  CHL1      H9              2.6770368737       21.7215461013      -13.0650500000  MEMB      124             0.0000000000
     14266       124  CHL1      C10             3.6475032355       22.9438110234      -14.4464400000  MEMB      124             0.0000000000
     14267       124  CHL1      C19             4.5362227907       24.1943164204      -14.5838000000  MEMB      124             0.0000000000
     14268       124  CHL1      H19A            4.9982301660       24.3575475546      -15.5809100000  MEMB      124             0.0000000000
     14269       124  CHL1      H19B            4.0540550780       25.0887125176      -14.1344600000  MEMB      124             0.0000000000
     14270       124  CHL1      H19C            5.4473341689       23.9539000230      -13.9952600000  MEMB      124             0.0000000000
     14271       124  CHL1      C1              4.4040169663       21.7034759151      -15.0442200000  MEMB      124             0.0000000000
     14272       124  CHL1      H1A             5.3254555810       21.4994642810      -14.4580000000  MEMB      124             0.0000000000
     14273       124  CHL1      H1B             3.8296583835       20.7582274466      -14.9396400000  MEMB      124             0.0000000000
     14274       124  CHL1      C2              4.7253112293       21.8065151728      -16.5112100000  MEMB      124             0.0000000000
     14275       124  CHL1      H2A             5.0647157001       20.8773177300      -17.0169100000  MEMB      124             0.0000000000
     14276       124  CHL1      H2B             5.5229753421       22.5669899550      -16.6516700000  MEMB      124             0.0000000000
     14277       124  CHL1      C20             2.5857700918       23.0175131869       -7.4108900000  MEMB      124             0.0000000000
     14278       124  CHL1      H20             2.6980373505       24.1105944713       -7.2469400000  MEMB      124             0.0000000000
     14279       124  CHL1      C21             3.8783088259       22.2399139969       -7.0884200000  MEMB      124             0.0000000000
     14280       124  CHL1      H21A            4.7866259994       22.7375080908       -7.4905100000  MEMB      124             0.0000000000
     14281       124  CHL1      H21B            3.7522330325       21.1859523517       -7.4164200000  MEMB      124             0.0000000000
     14282       124  CHL1      H21C            4.1756753598       22.2656121174       -6.0182600000  MEMB      124             0.0000000000
     14283       124  CHL1      C22             1.5432741779       22.5435156886       -6.3355600000  MEMB      124             0.0000000000
     14284       124  CHL1      H22A            0.6036498972       23.1153086699       -6.4920200000  MEMB      124             0.0000000000
     14285       124  CHL1      H22B            1.3768417514       21.4607937380       -6.5208200000  MEMB      124             0.0000000000
     14286       124  CHL1      C23             2.0316495236       22.9053494531       -4.9054600000  MEMB      124             0.0000000000
     14287       124  CHL1      H23A            2.5743933223       22.0069309794       -4.5413400000  MEMB      124             0.0000000000
     14288       124  CHL1      H23B            2.8111561845       23.6956057420       -4.9523300000  MEMB      124             0.0000000000
     14289       124  CHL1      C24             0.8531545640       23.3150919940       -3.9780000000  MEMB      124             0.0000000000
     14290       124  CHL1      H24A            0.2961555381       24.2089991377       -4.3315500000  MEMB      124             0.0000000000
     14291       124  CHL1      H24B            0.0428873899       22.5580858785       -4.0467000000  MEMB      124             0.0000000000
     14292       124  CHL1      C25             1.3750268346       23.5761429999       -2.5358300000  MEMB      124             0.0000000000
     14293       124  CHL1      H25             1.9973288429       22.6949654393       -2.2701400000  MEMB      124             0.0000000000
     14294       124  CHL1      C26             2.1352524297       24.8532326628       -2.2871200000  MEMB      124             0.0000000000
     14295       124  CHL1      H26A            1.5869163846       25.8189819562       -2.3186600000  MEMB      124             0.0000000000
     14296       124  CHL1      H26B            2.5761437936       24.8091662875       -1.2683000000  MEMB      124             0.0000000000
     14297       124  CHL1      H26C            2.9167438088       24.9745118982       -3.0674300000  MEMB      124             0.0000000000
     14298       124  CHL1      C27             0.2494029728       23.5170771980       -1.4539300000  MEMB      124             0.0000000000
     14299       124  CHL1      H27A            0.5763538715       23.1640367058       -0.4525400000  MEMB      124             0.0000000000
     14300       124  CHL1      H27B           -0.1360370010       24.5439756202       -1.2771500000  MEMB      124             0.0000000000
     14301       124  CHL1      H27C           -0.4529766127       22.6992286505       -1.7224400000  MEMB      124             0.0000000000
     14302       125  OSM       N              -2.7874513841      -25.5441548377      -21.5020510691  MEMB      125             0.0000000000
     14303       125  OSM       C15            -3.2461102704      -26.9462461674      -22.0706490068  MEMB      125             0.0000000000
     14304       125  OSM       H15A           -4.1198618534      -27.1132796606      -21.4582292386  MEMB      125             0.0000000000
     14305       125  OSM       H15B           -2.4925385003      -27.7197564843      -22.0851849974  MEMB      125             0.0000000000
     14306       125  OSM       H15C           -3.4568053165      -26.7588776069      -23.1131942937  MEMB      125             0.0000000000
     14307       125  OSM       C14            -2.4846883674      -25.6688501466      -19.9675961310  MEMB      125             0.0000000000
     14308       125  OSM       H14A           -1.9031388952      -26.5601358518      -19.7837218790  MEMB      125             0.0000000000
     14309       125  OSM       H14B           -3.4932492775      -25.6031089027      -19.5869608301  MEMB      125             0.0000000000
     14310       125  OSM       H14C           -1.9857871251      -24.8549087183      -19.4626239483  MEMB      125             0.0000000000
     14311       125  OSM       C13            -1.4369607155      -25.1315285632      -22.2382542530  MEMB      125             0.0000000000
     14312       125  OSM       H13A           -1.6746049032      -24.9450398511      -23.2751471563  MEMB      125             0.0000000000
     14313       125  OSM       H13B           -0.7264397422      -25.9355108240      -22.1150780356  MEMB      125             0.0000000000
     14314       125  OSM       H13C           -1.0627426157      -24.2386063214      -21.7596617768  MEMB      125             0.0000000000
     14315       125  OSM       C12            -3.8257315318      -24.4763672585      -21.7920624574  MEMB      125             0.0000000000
     14316       125  OSM       H12A           -4.7683440401      -24.9829252843      -21.6461842384  MEMB      125             0.0000000000
     14317       125  OSM       H12B           -3.7009277120      -24.2945599045      -22.8493089185  MEMB      125             0.0000000000
     14318       125  OSM       C11            -3.7870408158      -23.1174593022      -20.9613948807  MEMB      125             0.0000000000
     14319       125  OSM       H11A           -4.0644016739      -23.3521010237      -19.9114733741  MEMB      125             0.0000000000
     14320       125  OSM       H11B           -4.5544880297      -22.4675898767      -21.4336399126  MEMB      125             0.0000000000
     14321       125  OSM       P              -2.4184677282      -20.9582911711      -20.5872529831  MEMB      125             0.0000000000
     14322       125  OSM       O13            -1.3530759914      -20.2240007013      -21.3378544348  MEMB      125             0.0000000000
     14323       125  OSM       O14            -3.7592572881      -20.3607363676      -20.5139519350  MEMB      125             0.0000000000
     14324       125  OSM       O11            -1.9628949288      -21.0259471255      -19.0303559501  MEMB      125             0.0000000000
     14325       125  OSM       O12            -2.4854704930      -22.5015976861      -20.9985768953  MEMB      125             0.0000000000
     14326       125  OSM       C1S            -1.3356932449      -22.1560723127      -18.4870675199  MEMB      125             0.0000000000
     14327       125  OSM       H1S            -0.2293819652      -22.0595338834      -18.5198780659  MEMB      125             0.0000000000
     14328       125  OSM       H1T            -1.6303083836      -23.0485341671      -19.0795494305  MEMB      125             0.0000000000
     14329       125  OSM       NF             -1.0699147228      -23.3701189365      -16.2960202275  MEMB      125             0.0000000000
     14330       125  OSM       HNF            -1.5731494948      -24.0465973593      -15.7639104857  MEMB      125             0.0000000000
     14331       125  OSM       C2S            -1.9029999428      -22.4444109160      -17.0473527753  MEMB      125             0.0000000000
     14332       125  OSM       H2S            -1.9134162309      -21.5820388109      -16.3469763396  MEMB      125             0.0000000000
     14333       125  OSM       C3S            -3.3213256075      -23.0866626671      -17.0572684698  MEMB      125             0.0000000000
     14334       125  OSM       H3S            -3.2257531254      -23.9954956340      -17.6890986156  MEMB      125             0.0000000000
     14335       125  OSM       O3             -4.2758647623      -22.2158608002      -17.6229265344  MEMB      125             0.0000000000
     14336       125  OSM       HO3            -3.8614065888      -21.6085689477      -18.2401955277  MEMB      125             0.0000000000
     14337       125  OSM       C4S            -3.7961266045      -23.4194097261      -15.6587849447  MEMB      125             0.0000000000
     14338       125  OSM       H4S            -3.9560117786      -22.5238604365      -15.0403769596  MEMB      125             0.0000000000
     14339       125  OSM       C5S            -4.1987598016      -24.6195944677      -15.2731502616  MEMB      125             0.0000000000
     14340       125  OSM       H5S            -4.4120974884      -25.3535069262      -16.0642629231  MEMB      125             0.0000000000
     14341       125  OSM       C6S            -4.6692597125      -24.9230896784      -13.8600229182  MEMB      125             0.0000000000
     14342       125  OSM       H6S            -3.7598403380      -24.9226332196      -13.2218405079  MEMB      125             0.0000000000
     14343       125  OSM       H6T            -5.2972492868      -25.8386210469      -13.9018902983  MEMB      125             0.0000000000
     14344       125  OSM       C7S            -5.4496290701      -23.7663518493      -13.2018977981  MEMB      125             0.0000000000
     14345       125  OSM       H7S            -6.2066820291      -23.4838453363      -13.9643818509  MEMB      125             0.0000000000
     14346       125  OSM       H7T            -4.8422747882      -22.8470517673      -13.0593172451  MEMB      125             0.0000000000
     14347       125  OSM       C8S            -6.0480641918      -24.1184768260      -11.7617265178  MEMB      125             0.0000000000
     14348       125  OSM       H8S            -6.4621551631      -25.1375805168      -11.9175361510  MEMB      125             0.0000000000
     14349       125  OSM       H8T            -6.7808416191      -23.3690944030      -11.3932372997  MEMB      125             0.0000000000
     14350       125  OSM       C9S            -4.9577966485      -24.1422148363      -10.6491953596  MEMB      125             0.0000000000
     14351       125  OSM       H9S            -4.5680975284      -23.1019820566      -10.6684749825  MEMB      125             0.0000000000
     14352       125  OSM       H9T            -4.1796105261      -24.8610347030      -10.9839270915  MEMB      125             0.0000000000
     14353       125  OSM       C10S           -5.3893791685      -24.4773675828       -9.2075615359  MEMB      125             0.0000000000
     14354       125  OSM       H10S           -6.3818057204      -24.0232098161       -8.9998325715  MEMB      125             0.0000000000
     14355       125  OSM       H10T           -4.6784414971      -24.0783088922       -8.4528163728  MEMB      125             0.0000000000
     14356       125  OSM       C11S           -5.5947225111      -26.0508998050       -8.8964134577  MEMB      125             0.0000000000
     14357       125  OSM       H11S           -4.5979212176      -26.5364302332       -8.9668986561  MEMB      125             0.0000000000
     14358       125  OSM       H11T           -6.1481191235      -26.3541722038       -9.8107983726  MEMB      125             0.0000000000
     14359       125  OSM       C12S           -6.4774978266      -26.3806616340       -7.6322886445  MEMB      125             0.0000000000
     14360       125  OSM       H12S           -6.4845679318      -27.4806313591       -7.4762819346  MEMB      125             0.0000000000
     14361       125  OSM       H12T           -7.5059960674      -25.9617277109       -7.6640262028  MEMB      125             0.0000000000
     14362       125  OSM       C13S           -6.0227187078      -25.6578848370       -6.2647671712  MEMB      125             0.0000000000
     14363       125  OSM       H13S           -6.8490554327      -25.9429540242       -5.5790385876  MEMB      125             0.0000000000
     14364       125  OSM       H13T           -6.1367612023      -24.5593077064       -6.3849469815  MEMB      125             0.0000000000
     14365       125  OSM       C14S           -4.5883161418      -25.8112332928       -5.8228377710  MEMB      125             0.0000000000
     14366       125  OSM       H14S           -3.9088972577      -25.4681516708       -6.6321620157  MEMB      125             0.0000000000
     14367       125  OSM       H14T           -4.4280056014      -26.9080866900       -5.7484467264  MEMB      125             0.0000000000
     14368       125  OSM       C15S           -4.1412181556      -25.1242615262       -4.5134656541  MEMB      125             0.0000000000
     14369       125  OSM       H15S           -4.8784803528      -25.3185357247       -3.7053676129  MEMB      125             0.0000000000
     14370       125  OSM       H15T           -4.1145083373      -24.0484980232       -4.7897622688  MEMB      125             0.0000000000
     14371       125  OSM       C16S           -2.7960611871      -25.6481901529       -4.0095474064  MEMB      125             0.0000000000
     14372       125  OSM       H16S           -1.9871657034      -25.3565934331       -4.7130970782  MEMB      125             0.0000000000
     14373       125  OSM       H16T           -2.7806596297      -26.7520343812       -3.8846028470  MEMB      125             0.0000000000
     14374       125  OSM       C17S           -2.1595907293      -24.8697444888       -2.8534390759  MEMB      125             0.0000000000
     14375       125  OSM       H17S           -2.3856679513      -23.7991242397       -3.0457466918  MEMB      125             0.0000000000
     14376       125  OSM       H17T           -1.0966360789      -25.1406893748       -2.6772647728  MEMB      125             0.0000000000
     14377       125  OSM       C18S           -2.9414469809      -25.2070363302       -1.5250744328  MEMB      125             0.0000000000
     14378       125  OSM       H18S           -2.9669851071      -26.3017445276       -1.3372389035  MEMB      125             0.0000000000
     14379       125  OSM       H18T           -3.9400647012      -24.7915412147       -1.7789422145  MEMB      125             0.0000000000
     14380       125  OSM       H18U           -2.4603765862      -24.6260942680       -0.7093551131  MEMB      125             0.0000000000
     14381       125  OSM       C1F             0.1861514427      -23.0735641464      -16.0299730393  MEMB      125             0.0000000000
     14382       125  OSM       OF              0.7076750823      -21.9882074982      -16.4385493954  MEMB      125             0.0000000000
     14383       125  OSM       C2F             0.8770772171      -24.0844961826      -15.2192464321  MEMB      125             0.0000000000
     14384       125  OSM       H2F             1.9457862567      -24.2203072773      -15.4907928478  MEMB      125             0.0000000000
     14385       125  OSM       H2G             0.3342849343      -25.0413757597      -15.3744206713  MEMB      125             0.0000000000
     14386       125  OSM       C3F             0.7683625307      -23.8013292294      -13.7099445111  MEMB      125             0.0000000000
     14387       125  OSM       H3F             1.4816323432      -24.5004663762      -13.2233500060  MEMB      125             0.0000000000
     14388       125  OSM       H3G            -0.2780549980      -24.0679055926      -13.4486618957  MEMB      125             0.0000000000
     14389       125  OSM       C4F             1.0254026681      -22.3239491921      -13.3554298881  MEMB      125             0.0000000000
     14390       125  OSM       H4F             0.1296096807      -21.7328530909      -13.6426257674  MEMB      125             0.0000000000
     14391       125  OSM       H4G             1.9107062218      -21.9603381956      -13.9196516411  MEMB      125             0.0000000000
     14392       125  OSM       C5F             1.3434605279      -22.1559539102      -11.8217405870  MEMB      125             0.0000000000
     14393       125  OSM       H5F             2.1821867562      -22.8432737345      -11.5799749004  MEMB      125             0.0000000000
     14394       125  OSM       H5G             0.5064892652      -22.6332645688      -11.2685909516  MEMB      125             0.0000000000
     14395       125  OSM       C6F             1.5567143089      -20.7290559507      -11.4362055024  MEMB      125             0.0000000000
     14396       125  OSM       H6F             0.6225613859      -20.1289869707      -11.3962486808  MEMB      125             0.0000000000
     14397       125  OSM       H6G             2.2275515485      -20.2307850572      -12.1683419048  MEMB      125             0.0000000000
     14398       125  OSM       C7F             2.2375800657      -20.5724900949      -10.0179771858  MEMB      125             0.0000000000
     14399       125  OSM       H7F             2.4816215465      -19.5035467680       -9.8387427155  MEMB      125             0.0000000000
     14400       125  OSM       H7G             3.1932124045      -21.1306982170      -10.1154017871  MEMB      125             0.0000000000
     14401       125  OSM       C8F             1.5234686651      -21.1708697268       -8.8396904186  MEMB      125             0.0000000000
     14402       125  OSM       H8F             2.2548647847      -20.9975489252       -8.0215587554  MEMB      125             0.0000000000
     14403       125  OSM       H8G             1.4574465022      -22.2722257044       -8.9699865860  MEMB      125             0.0000000000
     14404       125  OSM       C9F             0.1581864324      -20.6395749614       -8.6335374121  MEMB      125             0.0000000000
     14405       125  OSM       H9F            -0.1355830733      -19.6599076913       -9.0384466216  MEMB      125             0.0000000000
     14406       125  OSM       C10F           -0.8878818555      -21.3627640782       -8.2458572601  MEMB      125             0.0000000000
     14407       125  OSM       H10F           -1.9144987866      -20.9774353790       -8.1587962114  MEMB      125             0.0000000000
     14408       125  OSM       C11F           -0.8971268189      -22.8264568085       -7.8993170207  MEMB      125             0.0000000000
     14409       125  OSM       H11F            0.0835962212      -23.3324095127       -7.7708063748  MEMB      125             0.0000000000
     14410       125  OSM       H11G           -1.2393948716      -23.3107727169       -8.8387918093  MEMB      125             0.0000000000
     14411       125  OSM       C12F           -1.7101460348      -23.2217465940       -6.6974453702  MEMB      125             0.0000000000
     14412       125  OSM       H12F           -1.4987817861      -24.2803810555       -6.4348821134  MEMB      125             0.0000000000
     14413       125  OSM       H12G           -2.7661108928      -22.9556621042       -6.9175773383  MEMB      125             0.0000000000
     14414       125  OSM       C13F           -1.3503762558      -22.4019633006       -5.4615928788  MEMB      125             0.0000000000
     14415       125  OSM       H13F           -2.1748074669      -22.4827951404       -4.7212548307  MEMB      125             0.0000000000
     14416       125  OSM       H13G           -1.4673233219      -21.3201253062       -5.6858045594  MEMB      125             0.0000000000
     14417       125  OSM       C14F            0.0614654649      -22.6827480150       -4.9285270627  MEMB      125             0.0000000000
     14418       125  OSM       H14F            0.7142796145      -22.1519981226       -5.6541011966  MEMB      125             0.0000000000
     14419       125  OSM       H14G            0.2534972695      -23.7732778268       -5.0190237796  MEMB      125             0.0000000000
     14420       125  OSM       C15F            0.2366018925      -22.3554618789       -3.3909626806  MEMB      125             0.0000000000
     14421       125  OSM       H15F           -0.5823622052      -22.7847118289       -2.7750388843  MEMB      125             0.0000000000
     14422       125  OSM       H15G            0.3837331197      -21.2565735049       -3.3194231856  MEMB      125             0.0000000000
     14423       125  OSM       C16F            1.5386889084      -23.1009012627       -3.0009688634  MEMB      125             0.0000000000
     14424       125  OSM       H16F            1.6350967609      -24.1154697387       -3.4433229387  MEMB      125             0.0000000000
     14425       125  OSM       H16G            1.6136172544      -23.2843115495       -1.9077787963  MEMB      125             0.0000000000
     14426       125  OSM       C17F            2.8596819801      -22.2917599891       -3.3001686415  MEMB      125             0.0000000000
     14427       125  OSM       H17F            2.9548724988      -22.1719965736       -4.4005862632  MEMB      125             0.0000000000
     14428       125  OSM       H17G            3.6327689983      -22.8894485308       -2.7715620956  MEMB      125             0.0000000000
     14429       125  OSM       C18F            2.9297050824      -20.8968530307       -2.6837374653  MEMB      125             0.0000000000
     14430       125  OSM       H18F            4.0205329695      -20.7701301378       -2.5153409089  MEMB      125             0.0000000000
     14431       125  OSM       H18G            2.5059848273      -21.0419906774       -1.6670187189  MEMB      125             0.0000000000
     14432       125  OSM       H18H            2.4147877690      -20.1365152644       -3.3090917180  MEMB      125             0.0000000000
     14433       126  CHL1      C3             -9.6721852373       21.3702025892      -17.2720700000  MEMB      126             0.0000000000
     14434       126  CHL1      H3             -8.6494921254       21.6359173092      -16.9288500000  MEMB      126             0.0000000000
     14435       126  CHL1      O3             -9.6326344027       21.3262890108      -18.7279300000  MEMB      126             0.0000000000
     14436       126  CHL1      H3'           -10.5351189435       21.1877939872      -19.0244800000  MEMB      126             0.0000000000
     14437       126  CHL1      C4            -10.0008279913       19.8959909907      -16.7319600000  MEMB      126             0.0000000000
     14438       126  CHL1      H4A           -11.0245046150       19.7060646921      -17.1196800000  MEMB      126             0.0000000000
     14439       126  CHL1      H4B            -9.2791283955       19.1374763253      -17.1036200000  MEMB      126             0.0000000000
     14440       126  CHL1      C5            -10.0333308772       19.9446975869      -15.1755700000  MEMB      126             0.0000000000
     14441       126  CHL1      C6             -9.1755446315       19.1914435037      -14.4676400000  MEMB      126             0.0000000000
     14442       126  CHL1      H6             -8.4776904750       18.4932890655      -14.9530100000  MEMB      126             0.0000000000
     14443       126  CHL1      C7             -9.0191229700       19.1938734851      -12.9594200000  MEMB      126             0.0000000000
     14444       126  CHL1      H7A            -8.8519626525       18.1739273440      -12.5518700000  MEMB      126             0.0000000000
     14445       126  CHL1      H7B            -8.1456743226       19.8385091842      -12.7230800000  MEMB      126             0.0000000000
     14446       126  CHL1      C8            -10.2999358940       19.7727488979      -12.3292100000  MEMB      126             0.0000000000
     14447       126  CHL1      H8            -11.1823854206       19.1228901085      -12.5116200000  MEMB      126             0.0000000000
     14448       126  CHL1      C14           -10.1553917344       19.9587032870      -10.8612800000  MEMB      126             0.0000000000
     14449       126  CHL1      H14            -9.2913156522       20.6567496510      -10.8410100000  MEMB      126             0.0000000000
     14450       126  CHL1      C15            -9.8758806576       18.6724672239      -10.1174800000  MEMB      126             0.0000000000
     14451       126  CHL1      H15A          -10.6205939658       17.9366309686      -10.4893000000  MEMB      126             0.0000000000
     14452       126  CHL1      H15B           -8.8331070259       18.3400980257      -10.3084600000  MEMB      126             0.0000000000
     14453       126  CHL1      C16           -10.1623705033       18.9769570385       -8.6413300000  MEMB      126             0.0000000000
     14454       126  CHL1      H16A          -10.8763326487       18.1973826342       -8.2995200000  MEMB      126             0.0000000000
     14455       126  CHL1      H16B           -9.2733089557       18.8800745788       -7.9821500000  MEMB      126             0.0000000000
     14456       126  CHL1      C17           -10.8070978709       20.3883094586       -8.6531700000  MEMB      126             0.0000000000
     14457       126  CHL1      H17            -9.9498330088       21.0634058404       -8.4442400000  MEMB      126             0.0000000000
     14458       126  CHL1      C13           -11.3186901192       20.6018226629      -10.0842200000  MEMB      126             0.0000000000
     14459       126  CHL1      C18           -12.6146911755       19.8313977190      -10.3367200000  MEMB      126             0.0000000000
     14460       126  CHL1      H18A          -12.5312497796       18.8352580977       -9.8518900000  MEMB      126             0.0000000000
     14461       126  CHL1      H18B          -13.4503182156       20.3586904922       -9.8287800000  MEMB      126             0.0000000000
     14462       126  CHL1      H18C          -12.8995782624       19.6605895627      -11.3969000000  MEMB      126             0.0000000000
     14463       126  CHL1      C12           -11.4372689927       22.0231391334      -10.6755900000  MEMB      126             0.0000000000
     14464       126  CHL1      H12A          -12.1992952662       22.5915173318      -10.1006200000  MEMB      126             0.0000000000
     14465       126  CHL1      H12B          -10.5117410078       22.6030666413      -10.4720900000  MEMB      126             0.0000000000
     14466       126  CHL1      C11           -11.7334052269       21.9427787172      -12.1963200000  MEMB      126             0.0000000000
     14467       126  CHL1      H11A          -12.7590276889       21.5482046572      -12.3597800000  MEMB      126             0.0000000000
     14468       126  CHL1      H11B          -11.7668832916       22.9751512534      -12.6054800000  MEMB      126             0.0000000000
     14469       126  CHL1      C9            -10.6685251603       21.1425938784      -13.0388800000  MEMB      126             0.0000000000
     14470       126  CHL1      H9             -9.7051615158       21.6742774181      -12.8853600000  MEMB      126             0.0000000000
     14471       126  CHL1      C10           -10.9898106036       20.9989191819      -14.5507700000  MEMB      126             0.0000000000
     14472       126  CHL1      C19           -12.4889161362       20.5369012275      -14.7074900000  MEMB      126             0.0000000000
     14473       126  CHL1      H19A          -13.2003461982       21.3198845805      -14.3681900000  MEMB      126             0.0000000000
     14474       126  CHL1      H19B          -12.6674202095       20.3745922619      -15.7919800000  MEMB      126             0.0000000000
     14475       126  CHL1      H19C          -12.6150703461       19.5665910735      -14.1812700000  MEMB      126             0.0000000000
     14476       126  CHL1      C1            -10.7699047136       22.3555386505      -15.3168800000  MEMB      126             0.0000000000
     14477       126  CHL1      H1A           -11.5833726814       23.0054292393      -14.9292800000  MEMB      126             0.0000000000
     14478       126  CHL1      H1B            -9.8585006281       22.7416042640      -14.8122800000  MEMB      126             0.0000000000
     14479       126  CHL1      C2            -10.7334165040       22.3515876048      -16.8170700000  MEMB      126             0.0000000000
     14480       126  CHL1      H2A           -10.4992905148       23.3766327401      -17.1759100000  MEMB      126             0.0000000000
     14481       126  CHL1      H2B           -11.7687834646       22.1924245134      -17.1872100000  MEMB      126             0.0000000000
     14482       126  CHL1      C20           -11.7879671828       20.5672568402       -7.5030300000  MEMB      126             0.0000000000
     14483       126  CHL1      H20           -12.7211238650       19.9907880861       -7.6797300000  MEMB      126             0.0000000000
     14484       126  CHL1      C21           -12.2380154041       22.0317559978       -7.3040700000  MEMB      126             0.0000000000
     14485       126  CHL1      H21A          -13.0982269111       22.0198140078       -6.6010700000  MEMB      126             0.0000000000
     14486       126  CHL1      H21B          -12.4566763846       22.4603444654       -8.3054800000  MEMB      126             0.0000000000
     14487       126  CHL1      H21C          -11.4384798848       22.7131901302       -6.9425200000  MEMB      126             0.0000000000
     14488       126  CHL1      C22           -11.2384671107       20.0653513534       -6.1970200000  MEMB      126             0.0000000000
     14489       126  CHL1      H22A          -10.6714517281       19.1366889751       -6.4215000000  MEMB      126             0.0000000000
     14490       126  CHL1      H22B          -10.5804146958       20.7635848962       -5.6368800000  MEMB      126             0.0000000000
     14491       126  CHL1      C23           -12.3885321804       19.7855082758       -5.1525900000  MEMB      126             0.0000000000
     14492       126  CHL1      H23A          -12.7226747561       20.7172185016       -4.6480100000  MEMB      126             0.0000000000
     14493       126  CHL1      H23B          -13.2688658255       19.3356676056       -5.6595100000  MEMB      126             0.0000000000
     14494       126  CHL1      C24           -11.9009013963       18.7276656478       -4.1357500000  MEMB      126             0.0000000000
     14495       126  CHL1      H24A          -11.5011410544       17.8159840453       -4.6290700000  MEMB      126             0.0000000000
     14496       126  CHL1      H24B          -11.0788179367       19.1457908962       -3.5163300000  MEMB      126             0.0000000000
     14497       126  CHL1      C25           -13.0268690084       18.3825297486       -3.1191000000  MEMB      126             0.0000000000
     14498       126  CHL1      H25           -12.5605264570       17.6616302516       -2.4140100000  MEMB      126             0.0000000000
     14499       126  CHL1      C26           -13.3671712483       19.5312644409       -2.2099800000  MEMB      126             0.0000000000
     14500       126  CHL1      H26A          -13.7095684604       19.1804920018       -1.2129600000  MEMB      126             0.0000000000
     14501       126  CHL1      H26B          -12.4883633903       20.1657484474       -1.9661800000  MEMB      126             0.0000000000
     14502       126  CHL1      H26C          -14.1241454105       20.1572693577       -2.7290600000  MEMB      126             0.0000000000
     14503       126  CHL1      C27           -14.3187113434       17.7697065497       -3.6745200000  MEMB      126             0.0000000000
     14504       126  CHL1      H27A          -14.9185677255       18.5151247626       -4.2391700000  MEMB      126             0.0000000000
     14505       126  CHL1      H27B          -14.0306297484       16.8929579475       -4.2931000000  MEMB      126             0.0000000000
     14506       126  CHL1      H27C          -14.9537042298       17.5439860227       -2.7912500000  MEMB      126             0.0000000000
     14507       127  CHL1      C3            -16.1182229693       16.7793348287      -17.3160600000  MEMB      127             0.0000000000
     14508       127  CHL1      H3            -15.0833305531       16.3760869781      -17.3425500000  MEMB      127             0.0000000000
     14509       127  CHL1      O3            -16.4682552307       16.9575341713      -18.6839400000  MEMB      127             0.0000000000
     14510       127  CHL1      H3'           -16.5136412772       16.1340047917      -19.1752000000  MEMB      127             0.0000000000
     14511       127  CHL1      C4            -17.1439726681       15.8432880030      -16.7182700000  MEMB      127             0.0000000000
     14512       127  CHL1      H4A           -18.1667612321       16.1451460338      -17.0299100000  MEMB      127             0.0000000000
     14513       127  CHL1      H4B           -16.8773979594       14.9473875518      -17.3187800000  MEMB      127             0.0000000000
     14514       127  CHL1      C5            -16.9532427109       15.6310014064      -15.2474900000  MEMB      127             0.0000000000
     14515       127  CHL1      C6            -16.7345887114       14.4665164698      -14.6292500000  MEMB      127             0.0000000000
     14516       127  CHL1      H6            -16.7609005768       13.5141315369      -15.1790500000  MEMB      127             0.0000000000
     14517       127  CHL1      C7            -16.5676432555       14.3667653933      -13.1378900000  MEMB      127             0.0000000000
     14518       127  CHL1      H7A           -17.0304356023       13.4203806619      -12.7850500000  MEMB      127             0.0000000000
     14519       127  CHL1      H7B           -15.5086569700       14.2739755245      -12.8150300000  MEMB      127             0.0000000000
     14520       127  CHL1      C8            -17.0424691254       15.5525357996      -12.2750200000  MEMB      127             0.0000000000
     14521       127  CHL1      H8            -18.1519133020       15.5932359293      -12.3173900000  MEMB      127             0.0000000000
     14522       127  CHL1      C14           -16.5305794906       15.5628562470      -10.8525300000  MEMB      127             0.0000000000
     14523       127  CHL1      H14           -15.4351018725       15.5297758117      -11.0345900000  MEMB      127             0.0000000000
     14524       127  CHL1      C15           -16.8758396744       14.3272650912       -9.9939400000  MEMB      127             0.0000000000
     14525       127  CHL1      H15A          -17.9682646330       14.3526171780       -9.7932200000  MEMB      127             0.0000000000
     14526       127  CHL1      H15B          -16.5833263711       13.3411204428      -10.4138000000  MEMB      127             0.0000000000
     14527       127  CHL1      C16           -16.3820962006       14.7806406819       -8.6276200000  MEMB      127             0.0000000000
     14528       127  CHL1      H16A          -17.1919428354       14.3802406666       -7.9809700000  MEMB      127             0.0000000000
     14529       127  CHL1      H16B          -15.4188498392       14.2597619165       -8.4401100000  MEMB      127             0.0000000000
     14530       127  CHL1      C17           -16.3238293347       16.3402040999       -8.6988600000  MEMB      127             0.0000000000
     14531       127  CHL1      H17           -15.2929527148       16.7481945941       -8.7707200000  MEMB      127             0.0000000000
     14532       127  CHL1      C13           -16.9279394360       16.7407237209      -10.0209900000  MEMB      127             0.0000000000
     14533       127  CHL1      C18           -18.5042068585       16.8864057652       -9.8454300000  MEMB      127             0.0000000000
     14534       127  CHL1      H18A          -18.5763318274       17.8186900479       -9.2454700000  MEMB      127             0.0000000000
     14535       127  CHL1      H18B          -18.9753668128       17.1509158904      -10.8161800000  MEMB      127             0.0000000000
     14536       127  CHL1      H18C          -19.0929232065       16.0303954019       -9.4517600000  MEMB      127             0.0000000000
     14537       127  CHL1      C12           -16.3429512335       18.0411507461      -10.6680000000  MEMB      127             0.0000000000
     14538       127  CHL1      H12A          -16.5836333354       19.0297941049      -10.2219400000  MEMB      127             0.0000000000
     14539       127  CHL1      H12B          -15.2465963939       17.8722263408      -10.7294700000  MEMB      127             0.0000000000
     14540       127  CHL1      C11           -16.8051894301       18.1580901824      -12.1825200000  MEMB      127             0.0000000000
     14541       127  CHL1      H11A          -17.8944993061       18.3760405827      -12.1674000000  MEMB      127             0.0000000000
     14542       127  CHL1      H11B          -16.2195158569       18.9832958070      -12.6411500000  MEMB      127             0.0000000000
     14543       127  CHL1      C9            -16.5532052034       16.8673022887      -12.9850100000  MEMB      127             0.0000000000
     14544       127  CHL1      H9            -15.4456080471       16.7822291828      -13.0027700000  MEMB      127             0.0000000000
     14545       127  CHL1      C10           -17.0476502667       16.9686417173      -14.4064300000  MEMB      127             0.0000000000
     14546       127  CHL1      C19           -18.5426381563       17.4118060288      -14.4697800000  MEMB      127             0.0000000000
     14547       127  CHL1      H19A          -18.6118713745       18.4593930997      -14.1063500000  MEMB      127             0.0000000000
     14548       127  CHL1      H19B          -18.8704377400       17.4338216915      -15.5310900000  MEMB      127             0.0000000000
     14549       127  CHL1      H19C          -19.1939006583       16.7927513741      -13.8163600000  MEMB      127             0.0000000000
     14550       127  CHL1      C1            -16.1837968736       18.0745546171      -15.1122100000  MEMB      127             0.0000000000
     14551       127  CHL1      H1A           -16.4165823474       19.0832036492      -14.7087700000  MEMB      127             0.0000000000
     14552       127  CHL1      H1B           -15.1206055476       17.9051814855      -14.8378800000  MEMB      127             0.0000000000
     14553       127  CHL1      C2            -16.1708442516       18.1520886263      -16.6490200000  MEMB      127             0.0000000000
     14554       127  CHL1      H2A           -15.3090477225       18.7725492580      -16.9756300000  MEMB      127             0.0000000000
     14555       127  CHL1      H2B           -17.0723103669       18.6364149446      -17.0815900000  MEMB      127             0.0000000000
     14556       127  CHL1      C20           -16.8350547322       16.9773977615       -7.3349400000  MEMB      127             0.0000000000
     14557       127  CHL1      H20           -17.8833847840       16.6576974651       -7.1529600000  MEMB      127             0.0000000000
     14558       127  CHL1      C21           -16.8063363731       18.4684991882       -7.2752500000  MEMB      127             0.0000000000
     14559       127  CHL1      H21A          -15.7367631321       18.7507004538       -7.3786500000  MEMB      127             0.0000000000
     14560       127  CHL1      H21B          -17.1787550487       18.8254470696       -6.2912700000  MEMB      127             0.0000000000
     14561       127  CHL1      H21C          -17.4747581715       18.9291865788       -8.0337400000  MEMB      127             0.0000000000
     14562       127  CHL1      C22           -15.8454706904       16.4491001624       -6.1907300000  MEMB      127             0.0000000000
     14563       127  CHL1      H22A          -15.1478628646       15.7271326937       -6.6665700000  MEMB      127             0.0000000000
     14564       127  CHL1      H22B          -15.2906462982       17.3293487833       -5.8013100000  MEMB      127             0.0000000000
     14565       127  CHL1      C23           -16.6526321058       15.7862810881       -5.0623900000  MEMB      127             0.0000000000
     14566       127  CHL1      H23A          -17.5253486000       16.4282013739       -4.8161600000  MEMB      127             0.0000000000
     14567       127  CHL1      H23B          -17.1809092742       14.8906863079       -5.4537500000  MEMB      127             0.0000000000
     14568       127  CHL1      C24           -15.8916762156       15.5828315625       -3.7487600000  MEMB      127             0.0000000000
     14569       127  CHL1      H24A          -15.3403868540       16.5031069052       -3.4597900000  MEMB      127             0.0000000000
     14570       127  CHL1      H24B          -16.5849352090       15.3022911604       -2.9271700000  MEMB      127             0.0000000000
     14571       127  CHL1      C25           -14.8282043373       14.3676802193       -3.8470100000  MEMB      127             0.0000000000
     14572       127  CHL1      H25           -14.1735277196       14.4470626569       -4.7411100000  MEMB      127             0.0000000000
     14573       127  CHL1      C26           -13.7679628053       14.2968717144       -2.6977600000  MEMB      127             0.0000000000
     14574       127  CHL1      H26A          -13.0512391165       13.4503245271       -2.7610000000  MEMB      127             0.0000000000
     14575       127  CHL1      H26B          -13.3891834373       15.3252052463       -2.5151000000  MEMB      127             0.0000000000
     14576       127  CHL1      H26C          -14.3878553133       14.0085237700       -1.8220200000  MEMB      127             0.0000000000
     14577       127  CHL1      C27           -15.4651302058       12.9915399928       -4.0127300000  MEMB      127             0.0000000000
     14578       127  CHL1      H27A          -14.6879760419       12.2843965422       -4.3737000000  MEMB      127             0.0000000000
     14579       127  CHL1      H27B          -15.6900370345       12.6029661015       -2.9964900000  MEMB      127             0.0000000000
     14580       127  CHL1      H27C          -16.3812764645       13.0018181002       -4.6411300000  MEMB      127             0.0000000000
     14581       128  CHL1      C3             22.8622663908       -5.4045186131      -17.3641750000  MEMB      128             0.0000000000
     14582       128  CHL1      H3             22.2479363483       -6.3279461887      -17.4289050000  MEMB      128             0.0000000000
     14583       128  CHL1      O3             23.2407726092       -4.9162836469      -18.6358250000  MEMB      128             0.0000000000
     14584       128  CHL1      H3'            22.6963793979       -5.3591238776      -19.2909150000  MEMB      128             0.0000000000
     14585       128  CHL1      C4             21.9347582319       -4.3393738785      -16.7181750000  MEMB      128             0.0000000000
     14586       128  CHL1      H4A            22.5555212560       -3.4267587377      -16.8451550000  MEMB      128             0.0000000000
     14587       128  CHL1      H4B            21.0630307247       -4.1515970848      -17.3808550000  MEMB      128             0.0000000000
     14588       128  CHL1      C5             21.6174034021       -4.7698932448      -15.3475750000  MEMB      128             0.0000000000
     14589       128  CHL1      C6             20.3471783860       -4.8586034596      -14.9042050000  MEMB      128             0.0000000000
     14590       128  CHL1      H6             19.4920720351       -4.7020509381      -15.5782250000  MEMB      128             0.0000000000
     14591       128  CHL1      C7             20.0082667082       -5.3559082466      -13.5259950000  MEMB      128             0.0000000000
     14592       128  CHL1      H7A            19.1462588409       -4.7986371878      -13.1008850000  MEMB      128             0.0000000000
     14593       128  CHL1      H7B            19.7784418585       -6.4428547315      -13.5183950000  MEMB      128             0.0000000000
     14594       128  CHL1      C8             21.1673007574       -5.2236738157      -12.5432350000  MEMB      128             0.0000000000
     14595       128  CHL1      H8             21.4276470385       -4.1521226783      -12.4079350000  MEMB      128             0.0000000000
     14596       128  CHL1      C14            20.9182416950       -5.8918237269      -11.1977550000  MEMB      128             0.0000000000
     14597       128  CHL1      H14            20.8131712541       -6.9946329829      -11.2820250000  MEMB      128             0.0000000000
     14598       128  CHL1      C15            19.6294382092       -5.5382684653      -10.5575350000  MEMB      128             0.0000000000
     14599       128  CHL1      H15A           19.6022838708       -4.4455775019      -10.3585350000  MEMB      128             0.0000000000
     14600       128  CHL1      H15B           18.7521321154       -5.8384489934      -11.1695450000  MEMB      128             0.0000000000
     14601       128  CHL1      C16            19.7330403691       -6.0645047564       -9.1383350000  MEMB      128             0.0000000000
     14602       128  CHL1      H16A           19.4569570790       -5.3203460371       -8.3609550000  MEMB      128             0.0000000000
     14603       128  CHL1      H16B           18.9806497619       -6.8756148254       -9.0367050000  MEMB      128             0.0000000000
     14604       128  CHL1      C17            21.2367968424       -6.4160947971       -8.9487150000  MEMB      128             0.0000000000
     14605       128  CHL1      H17            21.3175537709       -7.5104641911       -9.1223950000  MEMB      128             0.0000000000
     14606       128  CHL1      C13            21.9500664413       -5.7387359645      -10.1170350000  MEMB      128             0.0000000000
     14607       128  CHL1      C18            22.2985572284       -4.3130977184       -9.6979150000  MEMB      128             0.0000000000
     14608       128  CHL1      H18A           21.4581519088       -3.8177266866       -9.1662650000  MEMB      128             0.0000000000
     14609       128  CHL1      H18B           23.2403416684       -4.3905418829       -9.1136750000  MEMB      128             0.0000000000
     14610       128  CHL1      H18C           22.4778667584       -3.7052898921      -10.6104650000  MEMB      128             0.0000000000
     14611       128  CHL1      C12            23.1090050282       -6.5318490855      -10.7455650000  MEMB      128             0.0000000000
     14612       128  CHL1      H12A           23.9642404484       -6.5629657065      -10.0370950000  MEMB      128             0.0000000000
     14613       128  CHL1      H12B           22.8117613922       -7.5771518896      -10.9764350000  MEMB      128             0.0000000000
     14614       128  CHL1      C11            23.5631793115       -5.9343236505      -12.0283850000  MEMB      128             0.0000000000
     14615       128  CHL1      H11A           23.9310918474       -4.9029227165      -11.8408550000  MEMB      128             0.0000000000
     14616       128  CHL1      H11B           24.3593606889       -6.6238129582      -12.3819650000  MEMB      128             0.0000000000
     14617       128  CHL1      C9             22.4134052467       -5.8646550927      -13.1213750000  MEMB      128             0.0000000000
     14618       128  CHL1      H9             22.1047804916       -6.8876948752      -13.4254450000  MEMB      128             0.0000000000
     14619       128  CHL1      C10            22.8516202606       -5.2079051517      -14.4724550000  MEMB      128             0.0000000000
     14620       128  CHL1      C19            23.6192479260       -3.8827247368      -14.0872250000  MEMB      128             0.0000000000
     14621       128  CHL1      H19A           24.6692053527       -3.9759526507      -13.7362050000  MEMB      128             0.0000000000
     14622       128  CHL1      H19B           23.6604809700       -3.2332141945      -14.9876450000  MEMB      128             0.0000000000
     14623       128  CHL1      H19C           23.1458890875       -3.3251669832      -13.2509350000  MEMB      128             0.0000000000
     14624       128  CHL1      C1             23.7754397745       -6.1505971146      -15.2092450000  MEMB      128             0.0000000000
     14625       128  CHL1      H1A            24.7527085514       -6.1989092016      -14.6829950000  MEMB      128             0.0000000000
     14626       128  CHL1      H1B            23.3235506534       -7.1635435958      -15.1456150000  MEMB      128             0.0000000000
     14627       128  CHL1      C2             24.1517441523       -5.6911991871      -16.6080250000  MEMB      128             0.0000000000
     14628       128  CHL1      H2A            24.7493856294       -6.4812187778      -17.1110250000  MEMB      128             0.0000000000
     14629       128  CHL1      H2B            24.7264546556       -4.7404031383      -16.6133250000  MEMB      128             0.0000000000
     14630       128  CHL1      C20            21.8428844055       -6.1844032116       -7.5079150000  MEMB      128             0.0000000000
     14631       128  CHL1      H20            21.7817454845       -5.0866175212       -7.3483450000  MEMB      128             0.0000000000
     14632       128  CHL1      C21            23.2242820295       -6.6583712969       -7.2771450000  MEMB      128             0.0000000000
     14633       128  CHL1      H21A           23.9208590162       -6.0993514958       -7.9379050000  MEMB      128             0.0000000000
     14634       128  CHL1      H21B           23.3463222608       -7.7526727941       -7.4251750000  MEMB      128             0.0000000000
     14635       128  CHL1      H21C           23.6129635633       -6.3404010686       -6.2861050000  MEMB      128             0.0000000000
     14636       128  CHL1      C22            20.8669863860       -6.7328603111       -6.4200450000  MEMB      128             0.0000000000
     14637       128  CHL1      H22A           19.8929287760       -6.2007515902       -6.3710650000  MEMB      128             0.0000000000
     14638       128  CHL1      H22B           20.6077845669       -7.7563409897       -6.7659050000  MEMB      128             0.0000000000
     14639       128  CHL1      C23            21.3545487118       -6.7397992205       -4.9019650000  MEMB      128             0.0000000000
     14640       128  CHL1      H23A           22.1411639639       -7.5235102946       -4.9389150000  MEMB      128             0.0000000000
     14641       128  CHL1      H23B           21.5880785100       -5.6889135434       -4.6273450000  MEMB      128             0.0000000000
     14642       128  CHL1      C24            20.2547152908       -7.3853536509       -3.9863350000  MEMB      128             0.0000000000
     14643       128  CHL1      H24A           19.3350672458       -6.8602017781       -4.3221650000  MEMB      128             0.0000000000
     14644       128  CHL1      H24B           20.0130391602       -8.4160939125       -4.3232450000  MEMB      128             0.0000000000
     14645       128  CHL1      C25            20.3984108937       -7.3920488888       -2.5012850000  MEMB      128             0.0000000000
     14646       128  CHL1      H25            20.5944513163       -6.3672669034       -2.1195850000  MEMB      128             0.0000000000
     14647       128  CHL1      C26            19.1279390782       -7.9694173138       -1.8648150000  MEMB      128             0.0000000000
     14648       128  CHL1      H26A           19.1516908206       -9.0787085194       -1.9217050000  MEMB      128             0.0000000000
     14649       128  CHL1      H26B           19.0937068820       -7.6144132867       -0.8126150000  MEMB      128             0.0000000000
     14650       128  CHL1      H26C           18.2639840798       -7.5126693727       -2.3932750000  MEMB      128             0.0000000000
     14651       128  CHL1      C27            21.5428852780       -8.2532616526       -2.0591150000  MEMB      128             0.0000000000
     14652       128  CHL1      H27A           21.7250481146       -8.1903299638       -0.9649550000  MEMB      128             0.0000000000
     14653       128  CHL1      H27B           21.2673561636       -9.3085763072       -2.2705550000  MEMB      128             0.0000000000
     14654       128  CHL1      H27C           22.5363082352       -7.9837193621       -2.4771750000  MEMB      128             0.0000000000
     14655       129  SAPE      N             -24.5545871066        6.5143390564      -21.9091620501  MEMB      129             0.0000000000
     14656       129  SAPE      HN1           -25.0271195270        7.0941213296      -22.6317723564  MEMB      129             0.0000000000
     14657       129  SAPE      HN2           -25.0998884682        6.4430110509      -21.0264622421  MEMB      129             0.0000000000
     14658       129  SAPE      HN3           -23.6589658032        6.9593760563      -21.6238470951  MEMB      129             0.0000000000
     14659       129  SAPE      C12           -24.3940894348        5.0642542187      -22.2593276643  MEMB      129             0.0000000000
     14660       129  SAPE      H12A          -24.0598635451        4.9883524261      -23.3161403964  MEMB      129             0.0000000000
     14661       129  SAPE      H12B          -25.4063052025        4.6063625810      -22.2506356676  MEMB      129             0.0000000000
     14662       129  SAPE      C11           -23.4906782635        4.2336568365      -21.3098523120  MEMB      129             0.0000000000
     14663       129  SAPE      H11A          -22.4875713492        4.6848440294      -21.4664653421  MEMB      129             0.0000000000
     14664       129  SAPE      H11B          -23.5104534582        3.1782514029      -21.6563336232  MEMB      129             0.0000000000
     14665       129  SAPE      P             -22.7850341148        3.9126728249      -18.8242776951  MEMB      129             0.0000000000
     14666       129  SAPE      O13           -23.3931880632        3.9155647198      -17.4695862578  MEMB      129             0.0000000000
     14667       129  SAPE      O14           -22.0309740067        2.6738727879      -19.3116976044  MEMB      129             0.0000000000
     14668       129  SAPE      O12           -23.9128834197        4.2777348200      -19.9970824024  MEMB      129             0.0000000000
     14669       129  SAPE      O11           -21.8174655946        5.1084042549      -18.9190139846  MEMB      129             0.0000000000
     14670       129  SAPE      C1            -20.4421279070        4.9511532281      -19.1653681339  MEMB      129             0.0000000000
     14671       129  SAPE      HA            -20.1087888445        4.0539004572      -19.7294102485  MEMB      129             0.0000000000
     14672       129  SAPE      HB            -20.0819564448        5.7507651388      -19.8474373720  MEMB      129             0.0000000000
     14673       129  SAPE      C2            -19.6786726119        4.9042224053      -17.8341402006  MEMB      129             0.0000000000
     14674       129  SAPE      HS            -18.6311466741        4.9568685029      -18.2005267900  MEMB      129             0.0000000000
     14675       129  SAPE      O21           -19.9287648462        3.6249163892      -17.1841979145  MEMB      129             0.0000000000
     14676       129  SAPE      C21           -19.1778782971        3.3574089160      -16.1875910150  MEMB      129             0.0000000000
     14677       129  SAPE      O22           -18.2072211220        4.0224888258      -15.7749950610  MEMB      129             0.0000000000
     14678       129  SAPE      C22           -19.7675628972        2.0202962812      -15.4976365228  MEMB      129             0.0000000000
     14679       129  SAPE      H2R           -20.4836242825        1.5726164635      -16.2195503351  MEMB      129             0.0000000000
     14680       129  SAPE      H2S           -18.9159439559        1.3497513341      -15.2538422727  MEMB      129             0.0000000000
     14681       129  SAPE      C3            -19.9117645894        6.0488818765      -16.8749791920  MEMB      129             0.0000000000
     14682       129  SAPE      HX            -20.3590014311        6.9814143777      -17.2807911588  MEMB      129             0.0000000000
     14683       129  SAPE      HY            -18.9836144498        6.2736843586      -16.3072447832  MEMB      129             0.0000000000
     14684       129  SAPE      O31           -20.9443918886        5.6938975099      -15.8853700957  MEMB      129             0.0000000000
     14685       129  SAPE      C31           -21.0740646515        6.5553866529      -14.8219232404  MEMB      129             0.0000000000
     14686       129  SAPE      O32           -20.4743889616        7.5929758474      -14.7186392407  MEMB      129             0.0000000000
     14687       129  SAPE      C32           -22.1483137037        6.0425820851      -13.9064919677  MEMB      129             0.0000000000
     14688       129  SAPE      H2X           -21.6123748100        5.5398213802      -13.0732324531  MEMB      129             0.0000000000
     14689       129  SAPE      H2Y           -22.8537813050        5.3227976554      -14.3739822216  MEMB      129             0.0000000000
     14690       129  SAPE      C23           -20.5887317597        2.4811515787      -14.3057568619  MEMB      129             0.0000000000
     14691       129  SAPE      H3R           -21.3947099305        3.1036455708      -14.7498530837  MEMB      129             0.0000000000
     14692       129  SAPE      H3S           -20.0017153023        3.1279568192      -13.6191888866  MEMB      129             0.0000000000
     14693       129  SAPE      C24           -21.1553998492        1.2211352283      -13.5609511305  MEMB      129             0.0000000000
     14694       129  SAPE      H4R           -20.3429331265        1.0442343241      -12.8241167681  MEMB      129             0.0000000000
     14695       129  SAPE      H4S           -21.2665180524        0.3481463418      -14.2390837142  MEMB      129             0.0000000000
     14696       129  SAPE      C25           -22.4562365688        1.5925882844      -12.8563813304  MEMB      129             0.0000000000
     14697       129  SAPE      H5R           -23.2863039667        1.7194565296      -13.5669393605  MEMB      129             0.0000000000
     14698       129  SAPE      C26           -22.6124820794        1.8287236405      -11.5823045258  MEMB      129             0.0000000000
     14699       129  SAPE      H6R           -23.6006447204        2.0589698687      -11.1574270233  MEMB      129             0.0000000000
     14700       129  SAPE      C27           -21.5450496645        1.7659257347      -10.4731564058  MEMB      129             0.0000000000
     14701       129  SAPE      H7R           -21.1199112997        0.7492086860      -10.3322137062  MEMB      129             0.0000000000
     14702       129  SAPE      H7S           -22.0454716577        1.8492684711       -9.4847478644  MEMB      129             0.0000000000
     14703       129  SAPE      C28           -20.4270876798        2.7606504659      -10.4836133899  MEMB      129             0.0000000000
     14704       129  SAPE      H8R           -20.4781982553        3.6455488665      -11.1350295741  MEMB      129             0.0000000000
     14705       129  SAPE      C29           -19.2964881174        2.6406915558       -9.8481674655  MEMB      129             0.0000000000
     14706       129  SAPE      H9R           -18.5517053646        3.4457206736       -9.9331779203  MEMB      129             0.0000000000
     14707       129  SAPE      C210          -18.8348974459        1.5826257965       -8.9146908923  MEMB      129             0.0000000000
     14708       129  SAPE      H10R          -18.2511980454        0.7968259748       -9.4401759803  MEMB      129             0.0000000000
     14709       129  SAPE      H10S          -19.7226432441        1.0478734140       -8.5143562446  MEMB      129             0.0000000000
     14710       129  SAPE      C211          -18.1756396148        2.1702323091       -7.6666802514  MEMB      129             0.0000000000
     14711       129  SAPE      H11R          -17.2235288520        1.7774766488       -7.2803804795  MEMB      129             0.0000000000
     14712       129  SAPE      C212          -18.7846337672        3.0028923310       -6.7821335939  MEMB      129             0.0000000000
     14713       129  SAPE      H12R          -18.2617501360        3.2353504720       -5.8426891247  MEMB      129             0.0000000000
     14714       129  SAPE      C213          -20.1947078639        3.5885818108       -6.8428201441  MEMB      129             0.0000000000
     14715       129  SAPE      H13R          -20.9396206231        2.8798827747       -7.2637384040  MEMB      129             0.0000000000
     14716       129  SAPE      H13S          -20.1166970394        4.5198590889       -7.4436179448  MEMB      129             0.0000000000
     14717       129  SAPE      C214          -20.6512597170        4.1977736169       -5.5918059320  MEMB      129             0.0000000000
     14718       129  SAPE      H14R          -20.0770173758        5.1306859066       -5.4922041226  MEMB      129             0.0000000000
     14719       129  SAPE      C215          -21.6173594577        3.8291363784       -4.6820141412  MEMB      129             0.0000000000
     14720       129  SAPE      H15R          -21.7739915114        4.4434101308       -3.7830513946  MEMB      129             0.0000000000
     14721       129  SAPE      C216          -22.4907092277        2.5784127698       -4.7402568937  MEMB      129             0.0000000000
     14722       129  SAPE      H16R          -22.4576290653        2.1179799931       -5.7508157766  MEMB      129             0.0000000000
     14723       129  SAPE      H16S          -23.5799019238        2.7730256493       -4.6397280007  MEMB      129             0.0000000000
     14724       129  SAPE      C217          -21.8752254739        1.4637638174       -3.7922511701  MEMB      129             0.0000000000
     14725       129  SAPE      H17R          -20.7697642527        1.4258156180       -3.8963488026  MEMB      129             0.0000000000
     14726       129  SAPE      H17S          -22.3592958587        0.5417961276       -4.1795136535  MEMB      129             0.0000000000
     14727       129  SAPE      C218          -22.1582980110        1.8075505199       -2.2785497577  MEMB      129             0.0000000000
     14728       129  SAPE      H18R          -23.2290580976        2.0905278566       -2.1907001882  MEMB      129             0.0000000000
     14729       129  SAPE      H18S          -21.6586767887        2.7469778453       -1.9589009094  MEMB      129             0.0000000000
     14730       129  SAPE      C219          -21.7776471020        0.7608629726       -1.2019228354  MEMB      129             0.0000000000
     14731       129  SAPE      H19R          -20.7669972903        0.3161566460       -1.3249840103  MEMB      129             0.0000000000
     14732       129  SAPE      H19S          -22.4776315262       -0.1008199876       -1.2448803209  MEMB      129             0.0000000000
     14733       129  SAPE      C220          -21.9199112931        1.4144443176        0.2309488772  MEMB      129             0.0000000000
     14734       129  SAPE      H20R          -21.5553267868        0.6890495462        0.9893696781  MEMB      129             0.0000000000
     14735       129  SAPE      H20S          -22.9903793588        1.6925241862        0.3362618031  MEMB      129             0.0000000000
     14736       129  SAPE      H20T          -21.2673599802        2.3066645211        0.3424884978  MEMB      129             0.0000000000
     14737       129  SAPE      C33           -22.7997848815        7.2662355138      -13.3278084018  MEMB      129             0.0000000000
     14738       129  SAPE      H3X           -23.2212713513        7.9452138799      -14.0995976309  MEMB      129             0.0000000000
     14739       129  SAPE      H3Y           -22.1394206818        7.9834341614      -12.7950176186  MEMB      129             0.0000000000
     14740       129  SAPE      C34           -23.8917622156        6.8434240234      -12.3871676705  MEMB      129             0.0000000000
     14741       129  SAPE      H4X           -23.4886150076        6.4323580825      -11.4370009068  MEMB      129             0.0000000000
     14742       129  SAPE      H4Y           -24.5152045047        6.0323112893      -12.8204539897  MEMB      129             0.0000000000
     14743       129  SAPE      C35           -24.7222512939        8.1332546645      -11.9576772042  MEMB      129             0.0000000000
     14744       129  SAPE      H5X           -25.6342428236        7.6676990577      -11.5265733357  MEMB      129             0.0000000000
     14745       129  SAPE      H5Y           -25.1731029503        8.6227564932      -12.8473075828  MEMB      129             0.0000000000
     14746       129  SAPE      C36           -24.0381242304        9.2743163502      -11.1261718152  MEMB      129             0.0000000000
     14747       129  SAPE      H6X           -24.8575355491        9.9954134312      -10.9190362683  MEMB      129             0.0000000000
     14748       129  SAPE      H6Y           -23.2926965118        9.7707343518      -11.7836123636  MEMB      129             0.0000000000
     14749       129  SAPE      C37           -23.4894050949        8.7085033492       -9.8742431031  MEMB      129             0.0000000000
     14750       129  SAPE      H7X           -22.8314729483        9.4914254180       -9.4401019263  MEMB      129             0.0000000000
     14751       129  SAPE      H7Y           -22.8840203297        7.7988038481      -10.0749346242  MEMB      129             0.0000000000
     14752       129  SAPE      C38           -24.4994181836        8.3426523668       -8.8117327427  MEMB      129             0.0000000000
     14753       129  SAPE      H8X           -25.3270879834        7.8591567169       -9.3734399936  MEMB      129             0.0000000000
     14754       129  SAPE      H8Y           -24.8402982923        9.3419914078       -8.4661266820  MEMB      129             0.0000000000
     14755       129  SAPE      C39           -23.9748187235        7.4760806774       -7.7082547596  MEMB      129             0.0000000000
     14756       129  SAPE      H9X           -23.0603473760        7.8818245743       -7.2251042518  MEMB      129             0.0000000000
     14757       129  SAPE      H9Y           -23.6664785772        6.5335547544       -8.2091463615  MEMB      129             0.0000000000
     14758       129  SAPE      C310          -25.0101427370        7.1627345888       -6.5888429970  MEMB      129             0.0000000000
     14759       129  SAPE      H10X          -25.8990304414        6.8696263619       -7.1874135981  MEMB      129             0.0000000000
     14760       129  SAPE      H10Y          -25.1760970442        8.2047678335       -6.2410684499  MEMB      129             0.0000000000
     14761       129  SAPE      C311          -24.5527861439        6.3146655246       -5.4197313117  MEMB      129             0.0000000000
     14762       129  SAPE      H11X          -23.4992559305        6.5147736060       -5.1292962058  MEMB      129             0.0000000000
     14763       129  SAPE      H11Y          -24.4719165860        5.2719607508       -5.7946288141  MEMB      129             0.0000000000
     14764       129  SAPE      C312          -25.4805512759        6.3140862378       -4.1995524919  MEMB      129             0.0000000000
     14765       129  SAPE      H12X          -26.4523489036        5.8122179882       -4.3946380083  MEMB      129             0.0000000000
     14766       129  SAPE      H12Y          -25.8428034018        7.2691286807       -3.7625305182  MEMB      129             0.0000000000
     14767       129  SAPE      C313          -24.9490553094        5.5162164372       -3.0589164862  MEMB      129             0.0000000000
     14768       129  SAPE      H13X          -24.5481318852        4.5020348656       -3.2710896799  MEMB      129             0.0000000000
     14769       129  SAPE      H13Y          -25.8448344047        5.3639004305       -2.4196205189  MEMB      129             0.0000000000
     14770       129  SAPE      C314          -23.8927724327        6.1917479239       -2.1332883962  MEMB      129             0.0000000000
     14771       129  SAPE      H14X          -24.4391930954        7.1027802430       -1.8080715931  MEMB      129             0.0000000000
     14772       129  SAPE      H14Y          -22.9095603663        6.3691162413       -2.6192464306  MEMB      129             0.0000000000
     14773       129  SAPE      C315          -23.6331046798        5.5476478191       -0.7373616288  MEMB      129             0.0000000000
     14774       129  SAPE      H15X          -23.3590694632        4.4837532099       -0.9027533726  MEMB      129             0.0000000000
     14775       129  SAPE      H15Y          -24.6541447594        5.4743376033       -0.3055949645  MEMB      129             0.0000000000
     14776       129  SAPE      C316          -22.6412498809        6.1404094117        0.2728355643  MEMB      129             0.0000000000
     14777       129  SAPE      H16X          -23.1038342947        5.9099275072        1.2563067026  MEMB      129             0.0000000000
     14778       129  SAPE      H16Y          -22.6117127716        7.2456719267        0.1640083048  MEMB      129             0.0000000000
     14779       129  SAPE      C317          -21.2129305034        5.5282701457        0.2844786534  MEMB      129             0.0000000000
     14780       129  SAPE      H17X          -21.2667844480        4.4216358213        0.2021295185  MEMB      129             0.0000000000
     14781       129  SAPE      H17Y          -20.6386398027        5.8016505503        1.1953985357  MEMB      129             0.0000000000
     14782       129  SAPE      C318          -20.3379926304        5.9438454146       -0.9684177810  MEMB      129             0.0000000000
     14783       129  SAPE      H18X          -20.8624230422        5.4744348662       -1.8280384930  MEMB      129             0.0000000000
     14784       129  SAPE      H18Y          -19.3248603042        5.5104553991       -0.8267942433  MEMB      129             0.0000000000
     14785       129  SAPE      H18Z          -20.1970996071        7.0443145294       -1.0270502786  MEMB      129             0.0000000000
     14786       130  CHL1      C3             23.4682775336        3.2134135249      -17.3280650000  MEMB      130             0.0000000000
     14787       130  CHL1      H3             22.4437077328        3.5445823962      -17.0544150000  MEMB      130             0.0000000000
     14788       130  CHL1      O3             23.6211878664        2.7885960951      -18.6719350000  MEMB      130             0.0000000000
     14789       130  CHL1      H3'            24.5207075264        3.0411892747      -18.8925550000  MEMB      130             0.0000000000
     14790       130  CHL1      C4             24.4713956382        4.3779042721      -16.8472150000  MEMB      130             0.0000000000
     14791       130  CHL1      H4A            25.5155231064        4.2045327709      -17.1849550000  MEMB      130             0.0000000000
     14792       130  CHL1      H4B            24.1214790661        5.2288552769      -17.4699150000  MEMB      130             0.0000000000
     14793       130  CHL1      C5             24.5481886194        4.6974142091      -15.3940650000  MEMB      130             0.0000000000
     14794       130  CHL1      C6             24.3926720777        5.9073741605      -15.0019650000  MEMB      130             0.0000000000
     14795       130  CHL1      H6             24.2705645501        6.6524092790      -15.8019750000  MEMB      130             0.0000000000
     14796       130  CHL1      C7             24.4199467222        6.3246324664      -13.5640650000  MEMB      130             0.0000000000
     14797       130  CHL1      H7A            25.0579736884        7.2338835662      -13.5413650000  MEMB      130             0.0000000000
     14798       130  CHL1      H7B            23.4634101916        6.7935697980      -13.2487050000  MEMB      130             0.0000000000
     14799       130  CHL1      C8             24.9464672964        5.1995694427      -12.6107750000  MEMB      130             0.0000000000
     14800       130  CHL1      H8             26.0543923425        5.1975984849      -12.6933150000  MEMB      130             0.0000000000
     14801       130  CHL1      C14            24.5521488244        5.5336595752      -11.1846650000  MEMB      130             0.0000000000
     14802       130  CHL1      H14            23.4512117358        5.5322414845      -11.3338350000  MEMB      130             0.0000000000
     14803       130  CHL1      C15            24.7786699200        6.9507856265      -10.6532450000  MEMB      130             0.0000000000
     14804       130  CHL1      H15A           25.7404711571        7.3422782072      -11.0482150000  MEMB      130             0.0000000000
     14805       130  CHL1      H15B           23.9336383347        7.6174186265      -10.9286350000  MEMB      130             0.0000000000
     14806       130  CHL1      C16            24.8174289711        6.7816850693       -9.0450950000  MEMB      130             0.0000000000
     14807       130  CHL1      H16A           25.8145537849        7.0664132461       -8.6463450000  MEMB      130             0.0000000000
     14808       130  CHL1      H16B           24.0011530410        7.3997262294       -8.6137950000  MEMB      130             0.0000000000
     14809       130  CHL1      C17            24.5051619006        5.2623764663       -8.8023150000  MEMB      130             0.0000000000
     14810       130  CHL1      H17            23.4077127036        5.2539388946       -8.9750750000  MEMB      130             0.0000000000
     14811       130  CHL1      C13            24.9464199490        4.5097641395      -10.0771950000  MEMB      130             0.0000000000
     14812       130  CHL1      C18            26.4852396918        4.3291148988      -10.0942150000  MEMB      130             0.0000000000
     14813       130  CHL1      H18A           27.1203200894        5.1974352493       -9.8166950000  MEMB      130             0.0000000000
     14814       130  CHL1      H18B           26.6912112893        3.5504568791       -9.3289750000  MEMB      130             0.0000000000
     14815       130  CHL1      H18C           26.8621327858        4.0135258879      -11.0905450000  MEMB      130             0.0000000000
     14816       130  CHL1      C12            24.3592809247        3.1654435494      -10.4695950000  MEMB      130             0.0000000000
     14817       130  CHL1      H12A           24.5831461499        2.4839072749       -9.6212350000  MEMB      130             0.0000000000
     14818       130  CHL1      H12B           23.2566643706        3.2663594799      -10.3781450000  MEMB      130             0.0000000000
     14819       130  CHL1      C11            24.7217303709        2.7101169719      -11.8971450000  MEMB      130             0.0000000000
     14820       130  CHL1      H11A           25.8177000685        2.5298493452      -11.8715050000  MEMB      130             0.0000000000
     14821       130  CHL1      H11B           24.2449137983        1.7301512104      -12.1131150000  MEMB      130             0.0000000000
     14822       130  CHL1      C9             24.3751144378        3.8312386490      -12.9903750000  MEMB      130             0.0000000000
     14823       130  CHL1      H9             23.2788238285        4.0003942140      -12.9282750000  MEMB      130             0.0000000000
     14824       130  CHL1      C10            24.6535060680        3.3883608620      -14.4787650000  MEMB      130             0.0000000000
     14825       130  CHL1      C19            26.0543463092        2.7534306424      -14.5570950000  MEMB      130             0.0000000000
     14826       130  CHL1      H19A           26.1218981986        1.7070364651      -14.1899150000  MEMB      130             0.0000000000
     14827       130  CHL1      H19B           26.3185454357        2.6180768617      -15.6277050000  MEMB      130             0.0000000000
     14828       130  CHL1      H19C           26.8630770393        3.2843967647      -14.0108750000  MEMB      130             0.0000000000
     14829       130  CHL1      C1             23.6455758195        2.3585058206      -14.9396550000  MEMB      130             0.0000000000
     14830       130  CHL1      H1A            23.8085976752        1.4553369348      -14.3135450000  MEMB      130             0.0000000000
     14831       130  CHL1      H1B            22.6314231029        2.6156364906      -14.5658850000  MEMB      130             0.0000000000
     14832       130  CHL1      C2             23.7736764532        2.0010156285      -16.3872650000  MEMB      130             0.0000000000
     14833       130  CHL1      H2A            23.0825799892        1.1595185907      -16.6077150000  MEMB      130             0.0000000000
     14834       130  CHL1      H2B            24.7856175691        1.6696497363      -16.7042450000  MEMB      130             0.0000000000
     14835       130  CHL1      C20            24.8054881745        4.5221205721       -7.5177350000  MEMB      130             0.0000000000
     14836       130  CHL1      H20            25.0635157919        3.4628117643       -7.7312950000  MEMB      130             0.0000000000
     14837       130  CHL1      C21            23.5099028134        4.5430437800       -6.7231550000  MEMB      130             0.0000000000
     14838       130  CHL1      H21A           23.6340388204        4.0878610236       -5.7173150000  MEMB      130             0.0000000000
     14839       130  CHL1      H21B           22.6925923747        4.1457738129       -7.3622950000  MEMB      130             0.0000000000
     14840       130  CHL1      H21C           23.2084838470        5.5908115602       -6.5095050000  MEMB      130             0.0000000000
     14841       130  CHL1      C22            26.0597112879        5.1072360628       -6.8256950000  MEMB      130             0.0000000000
     14842       130  CHL1      H22A           26.8715357993        5.4593080266       -7.4974850000  MEMB      130             0.0000000000
     14843       130  CHL1      H22B           25.8361189600        6.0266464141       -6.2434450000  MEMB      130             0.0000000000
     14844       130  CHL1      C23            26.6494744569        4.1730801786       -5.8079150000  MEMB      130             0.0000000000
     14845       130  CHL1      H23A           25.8686839704        3.8248254651       -5.0984050000  MEMB      130             0.0000000000
     14846       130  CHL1      H23B           27.0954846057        3.2988219919       -6.3285550000  MEMB      130             0.0000000000
     14847       130  CHL1      C24            27.7238065016        4.7611959974       -4.9388250000  MEMB      130             0.0000000000
     14848       130  CHL1      H24A           28.5163661133        5.1510601316       -5.6127450000  MEMB      130             0.0000000000
     14849       130  CHL1      H24B           27.3657138829        5.6544177256       -4.3836250000  MEMB      130             0.0000000000
     14850       130  CHL1      C25            28.4192809683        3.8104927714       -3.9217950000  MEMB      130             0.0000000000
     14851       130  CHL1      H25            27.6263254313        3.0753277976       -3.6667050000  MEMB      130             0.0000000000
     14852       130  CHL1      C26            29.5751599343        3.2001780213       -4.5613350000  MEMB      130             0.0000000000
     14853       130  CHL1      H26A           30.3525790985        3.9340104343       -4.8637150000  MEMB      130             0.0000000000
     14854       130  CHL1      H26B           30.0088861705        2.3839931666       -3.9448650000  MEMB      130             0.0000000000
     14855       130  CHL1      H26C           29.2228093256        2.6038190588       -5.4299750000  MEMB      130             0.0000000000
     14856       130  CHL1      C27            28.9284648421        4.4977868106       -2.6461050000  MEMB      130             0.0000000000
     14857       130  CHL1      H27A           29.6423002195        5.3241251871       -2.8508250000  MEMB      130             0.0000000000
     14858       130  CHL1      H27B           28.1160693052        5.0237196484       -2.1004650000  MEMB      130             0.0000000000
     14859       130  CHL1      H27C           29.2883699828        3.7882320374       -1.8706450000  MEMB      130             0.0000000000
     14860       131  SAPS      N             -21.5923406768       -3.9346767969      -20.1662750946  MEMB      131             0.0000000000
     14861       131  SAPS      HN1           -22.2608771103       -4.5035664880      -19.6085802050  MEMB      131             0.0000000000
     14862       131  SAPS      HN2           -21.1700900557       -4.4463391651      -20.9672158674  MEMB      131             0.0000000000
     14863       131  SAPS      HN3           -20.9362777780       -3.5025999197      -19.4847393919  MEMB      131             0.0000000000
     14864       131  SAPS      C12           -22.4628361053       -2.9291593888      -20.8178758150  MEMB      131             0.0000000000
     14865       131  SAPS      H12A          -22.2070618007       -1.9296367824      -20.4986044343  MEMB      131             0.0000000000
     14866       131  SAPS      C13           -22.5018033356       -2.7417775597      -22.3639303555  MEMB      131             0.0000000000
     14867       131  SAPS      O13A          -21.8073515554       -3.5716163663      -23.0029518658  MEMB      131             0.0000000000
     14868       131  SAPS      O13B          -23.2702671411       -1.8692119760      -22.7847102098  MEMB      131             0.0000000000
     14869       131  SAPS      C11           -23.8862114468       -2.8446382122      -20.2863511742  MEMB      131             0.0000000000
     14870       131  SAPS      H11A          -24.3553028902       -3.7393772190      -20.7486458012  MEMB      131             0.0000000000
     14871       131  SAPS      H11B          -24.4840557839       -2.0034491422      -20.6978171102  MEMB      131             0.0000000000
     14872       131  SAPS      P             -24.8179390610       -3.8971937209      -18.1427589220  MEMB      131             0.0000000000
     14873       131  SAPS      O13           -26.1561454361       -4.0068029683      -18.7747630576  MEMB      131             0.0000000000
     14874       131  SAPS      O14           -23.9499293108       -5.0624902754      -18.1037235179  MEMB      131             0.0000000000
     14875       131  SAPS      O12           -23.9979527665       -2.7002010993      -18.8964613699  MEMB      131             0.0000000000
     14876       131  SAPS      O11           -24.9176277659       -3.3144834249      -16.6601986062  MEMB      131             0.0000000000
     14877       131  SAPS      C1            -25.4482713747       -2.0299710589      -16.4136736920  MEMB      131             0.0000000000
     14878       131  SAPS      HA            -25.7280180895       -1.5011332735      -17.3498326162  MEMB      131             0.0000000000
     14879       131  SAPS      HB            -26.3131398834       -2.0934643420      -15.7192012222  MEMB      131             0.0000000000
     14880       131  SAPS      C2            -24.2772403252       -1.2223843155      -15.7528447481  MEMB      131             0.0000000000
     14881       131  SAPS      HS            -24.4658008920       -0.1304691130      -15.8333873585  MEMB      131             0.0000000000
     14882       131  SAPS      O21           -23.0564277705       -1.5118069610      -16.4048547570  MEMB      131             0.0000000000
     14883       131  SAPS      C21           -22.1272999412       -0.6175250426      -16.5683407954  MEMB      131             0.0000000000
     14884       131  SAPS      O22           -22.1150911975        0.5233434042      -16.1317642484  MEMB      131             0.0000000000
     14885       131  SAPS      C22           -21.0840600739       -1.2070339928      -17.4530408967  MEMB      131             0.0000000000
     14886       131  SAPS      H2R           -21.3764671177       -2.1834217168      -17.8951790498  MEMB      131             0.0000000000
     14887       131  SAPS      H2S           -20.8034901208       -0.4353442314      -18.2014367575  MEMB      131             0.0000000000
     14888       131  SAPS      C3            -24.1189221990       -1.5281729097      -14.2256544142  MEMB      131             0.0000000000
     14889       131  SAPS      HX            -25.1769051955       -1.4512498695      -13.8953880189  MEMB      131             0.0000000000
     14890       131  SAPS      HY            -23.3874326809       -0.8144052244      -13.7900169134  MEMB      131             0.0000000000
     14891       131  SAPS      O31           -23.5982444974       -2.8344071058      -14.0557934315  MEMB      131             0.0000000000
     14892       131  SAPS      C31           -23.5142126720       -3.2350681211      -12.7394078173  MEMB      131             0.0000000000
     14893       131  SAPS      O32           -23.7643112633       -2.5173044862      -11.7958698440  MEMB      131             0.0000000000
     14894       131  SAPS      C32           -22.9268702142       -4.6318612827      -12.7651199587  MEMB      131             0.0000000000
     14895       131  SAPS      H2X           -21.9097494958       -4.6059305925      -13.2113420453  MEMB      131             0.0000000000
     14896       131  SAPS      H2Y           -23.5574812341       -5.3500449188      -13.3315680169  MEMB      131             0.0000000000
     14897       131  SAPS      C23           -19.8220465315       -1.4770915403      -16.4963191656  MEMB      131             0.0000000000
     14898       131  SAPS      H3R           -19.7337262108       -0.4539274404      -16.0724608454  MEMB      131             0.0000000000
     14899       131  SAPS      H3S           -18.9874707362       -1.6244004700      -17.2147227362  MEMB      131             0.0000000000
     14900       131  SAPS      C24           -19.8399873826       -2.5703303339      -15.4654543928  MEMB      131             0.0000000000
     14901       131  SAPS      H4R           -20.0274392686       -3.5227697022      -16.0058634867  MEMB      131             0.0000000000
     14902       131  SAPS      H4S           -20.7731733516       -2.3696084665      -14.8969517296  MEMB      131             0.0000000000
     14903       131  SAPS      C25           -18.6326929263       -2.7107262431      -14.5825868416  MEMB      131             0.0000000000
     14904       131  SAPS      H5R           -17.8330016832       -3.3315236962      -15.0128243610  MEMB      131             0.0000000000
     14905       131  SAPS      C26           -18.4661108747       -2.2419691965      -13.3863408682  MEMB      131             0.0000000000
     14906       131  SAPS      H6R           -17.5815984701       -2.5353992210      -12.8019291935  MEMB      131             0.0000000000
     14907       131  SAPS      C27           -19.4373390651       -1.4664093343      -12.4497070322  MEMB      131             0.0000000000
     14908       131  SAPS      H7R           -20.2826501362       -1.0901211117      -13.0646686472  MEMB      131             0.0000000000
     14909       131  SAPS      H7S           -18.9726590236       -0.5630240263      -11.9999419811  MEMB      131             0.0000000000
     14910       131  SAPS      C28           -20.0686301774       -2.2505436541      -11.3743970008  MEMB      131             0.0000000000
     14911       131  SAPS      H8R           -20.4812756932       -3.2567964198      -11.5392583887  MEMB      131             0.0000000000
     14912       131  SAPS      C29           -20.1666002196       -1.8788460437      -10.1076177679  MEMB      131             0.0000000000
     14913       131  SAPS      H9R           -20.7450883336       -2.5426755454       -9.4483138564  MEMB      131             0.0000000000
     14914       131  SAPS      C210          -19.7319360551       -0.6132319655       -9.4289386811  MEMB      131             0.0000000000
     14915       131  SAPS      H10R          -20.4429137685        0.1257547640       -9.8564090058  MEMB      131             0.0000000000
     14916       131  SAPS      H10S          -18.6770797781       -0.2953976216       -9.5723990273  MEMB      131             0.0000000000
     14917       131  SAPS      C211          -20.0553045281       -0.6926313924       -7.9696166791  MEMB      131             0.0000000000
     14918       131  SAPS      H11R          -19.1499004626       -0.8928841352       -7.3778879426  MEMB      131             0.0000000000
     14919       131  SAPS      C212          -21.2527884356       -0.5835940335       -7.3705245628  MEMB      131             0.0000000000
     14920       131  SAPS      H12R          -21.3503063826       -0.8293527538       -6.3027731313  MEMB      131             0.0000000000
     14921       131  SAPS      C213          -22.5769845955       -0.4341097421       -8.0823811950  MEMB      131             0.0000000000
     14922       131  SAPS      H13R          -22.5879524242        0.1366833324       -9.0354800116  MEMB      131             0.0000000000
     14923       131  SAPS      H13S          -23.2126240224        0.2484037144       -7.4786777367  MEMB      131             0.0000000000
     14924       131  SAPS      C214          -23.3191989804       -1.7581184255       -8.2223141387  MEMB      131             0.0000000000
     14925       131  SAPS      H14R          -22.7777009055       -2.5043403820       -8.8222579773  MEMB      131             0.0000000000
     14926       131  SAPS      C215          -24.3985966452       -2.1036172485       -7.5046935095  MEMB      131             0.0000000000
     14927       131  SAPS      H15R          -24.7216267710       -3.1533131559       -7.5662559170  MEMB      131             0.0000000000
     14928       131  SAPS      C216          -25.1209994242       -1.3033073054       -6.4133257454  MEMB      131             0.0000000000
     14929       131  SAPS      H16R          -26.2168494362       -1.4859952902       -6.4056543309  MEMB      131             0.0000000000
     14930       131  SAPS      H16S          -24.9334246639       -0.2256360340       -6.6076485152  MEMB      131             0.0000000000
     14931       131  SAPS      C217          -24.6523243714       -1.5602855460       -5.0467240198  MEMB      131             0.0000000000
     14932       131  SAPS      H17R          -23.5519462485       -1.7102575269       -5.0783091239  MEMB      131             0.0000000000
     14933       131  SAPS      H17S          -25.0633314683       -2.5044247941       -4.6295960037  MEMB      131             0.0000000000
     14934       131  SAPS      C218          -25.0393213535       -0.3158056908       -4.1284318632  MEMB      131             0.0000000000
     14935       131  SAPS      H18R          -26.1391144850       -0.1584370977       -4.1318071102  MEMB      131             0.0000000000
     14936       131  SAPS      H18S          -24.5978844105        0.6316439837       -4.5049867381  MEMB      131             0.0000000000
     14937       131  SAPS      C219          -24.5310023017       -0.6058820478       -2.7046097388  MEMB      131             0.0000000000
     14938       131  SAPS      H19R          -24.5246926031       -1.6951795203       -2.4861777586  MEMB      131             0.0000000000
     14939       131  SAPS      H19S          -25.2350012387       -0.1328797674       -1.9869925525  MEMB      131             0.0000000000
     14940       131  SAPS      C220          -23.1278541646       -0.1036508886       -2.5479968534  MEMB      131             0.0000000000
     14941       131  SAPS      H20R          -22.6538883159       -0.5639778995       -1.6548145084  MEMB      131             0.0000000000
     14942       131  SAPS      H20S          -23.1773201031        0.9900631139       -2.3591480146  MEMB      131             0.0000000000
     14943       131  SAPS      H20T          -22.4760442305       -0.2780567819       -3.4306344655  MEMB      131             0.0000000000
     14944       131  SAPS      C33           -22.6441227389       -5.1455643309      -11.2858377383  MEMB      131             0.0000000000
     14945       131  SAPS      H3X           -23.5515359982       -4.9311204267      -10.6817381995  MEMB      131             0.0000000000
     14946       131  SAPS      H3Y           -21.7690853148       -4.6539467994      -10.8094526640  MEMB      131             0.0000000000
     14947       131  SAPS      C34           -22.4306037742       -6.6760444208      -10.9739940957  MEMB      131             0.0000000000
     14948       131  SAPS      H4X           -21.5392472400       -7.1289585899      -11.4584256346  MEMB      131             0.0000000000
     14949       131  SAPS      H4Y           -23.3171624327       -7.1536571835      -11.4432722356  MEMB      131             0.0000000000
     14950       131  SAPS      C35           -22.6047990527       -6.9658962799       -9.4767756378  MEMB      131             0.0000000000
     14951       131  SAPS      H5X           -22.3102690398       -8.0371284377       -9.4826371565  MEMB      131             0.0000000000
     14952       131  SAPS      H5Y           -23.6477330803       -6.9886353349       -9.0945547581  MEMB      131             0.0000000000
     14953       131  SAPS      C36           -21.6207640847       -6.1155658485       -8.6078258299  MEMB      131             0.0000000000
     14954       131  SAPS      H6X           -21.9710667039       -5.0702577383       -8.4702038099  MEMB      131             0.0000000000
     14955       131  SAPS      H6Y           -20.6983705611       -5.9656542785       -9.2086896612  MEMB      131             0.0000000000
     14956       131  SAPS      C37           -21.3488332106       -6.7235548281       -7.1846396293  MEMB      131             0.0000000000
     14957       131  SAPS      H7X           -20.5954924076       -6.0515605582       -6.7207196813  MEMB      131             0.0000000000
     14958       131  SAPS      H7Y           -20.6825874947       -7.6114012030       -7.1380989888  MEMB      131             0.0000000000
     14959       131  SAPS      C38           -22.6559560888       -6.8591571728       -6.2562025143  MEMB      131             0.0000000000
     14960       131  SAPS      H8X           -22.5249894742       -7.8555526763       -5.7825312958  MEMB      131             0.0000000000
     14961       131  SAPS      H8Y           -23.5804317655       -6.8403289994       -6.8720846862  MEMB      131             0.0000000000
     14962       131  SAPS      C39           -22.6875505639       -5.8290339294       -5.1166538796  MEMB      131             0.0000000000
     14963       131  SAPS      H9X           -22.5414793105       -4.8383948098       -5.5979211509  MEMB      131             0.0000000000
     14964       131  SAPS      H9Y           -21.7706946882       -6.0835609072       -4.5431446852  MEMB      131             0.0000000000
     14965       131  SAPS      C310          -23.8838505316       -5.8640183341       -4.1710756491  MEMB      131             0.0000000000
     14966       131  SAPS      H10X          -24.0552662127       -6.8106226162       -3.6153082804  MEMB      131             0.0000000000
     14967       131  SAPS      H10Y          -24.8361569405       -5.6885425694       -4.7157245399  MEMB      131             0.0000000000
     14968       131  SAPS      C311          -23.7822104150       -4.7215589424       -3.1972593972  MEMB      131             0.0000000000
     14969       131  SAPS      H11X          -24.7031014964       -4.6575071679       -2.5790524334  MEMB      131             0.0000000000
     14970       131  SAPS      H11Y          -23.7541519395       -3.7261293124       -3.6898572711  MEMB      131             0.0000000000
     14971       131  SAPS      C312          -22.5671368147       -4.9371210536       -2.2676678250  MEMB      131             0.0000000000
     14972       131  SAPS      H12X          -21.6336183576       -5.0322544691       -2.8624917319  MEMB      131             0.0000000000
     14973       131  SAPS      H12Y          -22.5688969388       -5.8764039271       -1.6743179946  MEMB      131             0.0000000000
     14974       131  SAPS      C313          -22.3986360950       -3.8394935828       -1.1628687525  MEMB      131             0.0000000000
     14975       131  SAPS      H13X          -22.9415194545       -4.1603634192       -0.2481881652  MEMB      131             0.0000000000
     14976       131  SAPS      H13Y          -22.7336581029       -2.8391003408       -1.5111422826  MEMB      131             0.0000000000
     14977       131  SAPS      C314          -20.9048963708       -3.7294383617       -0.8540396116  MEMB      131             0.0000000000
     14978       131  SAPS      H14X          -20.2809621385       -3.5808239361       -1.7611995531  MEMB      131             0.0000000000
     14979       131  SAPS      H14Y          -20.6541109826       -4.6634355065       -0.3071597555  MEMB      131             0.0000000000
     14980       131  SAPS      C315          -20.5868876870       -2.4998986219       -0.0001188657  MEMB      131             0.0000000000
     14981       131  SAPS      H15X          -21.1738876475       -2.4381327953        0.9411226538  MEMB      131             0.0000000000
     14982       131  SAPS      H15Y          -20.8101887530       -1.5791413020       -0.5803466412  MEMB      131             0.0000000000
     14983       131  SAPS      C316          -19.0555788326       -2.5228676465        0.4204139047  MEMB      131             0.0000000000
     14984       131  SAPS      H16X          -18.3376805644       -2.3981113774       -0.4182625009  MEMB      131             0.0000000000
     14985       131  SAPS      H16Y          -18.7761620500       -3.4890676742        0.8923303612  MEMB      131             0.0000000000
     14986       131  SAPS      C317          -18.6612701727       -1.2868021910        1.3160801816  MEMB      131             0.0000000000
     14987       131  SAPS      H17X          -17.6030182296       -1.4556019631        1.6092179150  MEMB      131             0.0000000000
     14988       131  SAPS      H17Y          -19.2503779857       -1.3441608251        2.2562846857  MEMB      131             0.0000000000
     14989       131  SAPS      C318          -18.8452983157        0.0645131027        0.7101623086  MEMB      131             0.0000000000
     14990       131  SAPS      H18X          -18.3990501671        0.1215681972       -0.3056757107  MEMB      131             0.0000000000
     14991       131  SAPS      H18Y          -18.3727788918        0.9683069284        1.1508478734  MEMB      131             0.0000000000
     14992       131  SAPS      H18Z          -19.9130347756        0.3661853012        0.6531225706  MEMB      131             0.0000000000
     14993       132  OSM       N              11.0353080881      -23.9569772743      -21.1777662149  MEMB      132             0.0000000000
     14994       132  OSM       C15            11.5908424854      -23.9467725737      -22.5857609690  MEMB      132             0.0000000000
     14995       132  OSM       H15A           11.4309232770      -22.9951461431      -23.0707696160  MEMB      132             0.0000000000
     14996       132  OSM       H15B           11.1337153894      -24.7884254505      -23.0848152513  MEMB      132             0.0000000000
     14997       132  OSM       H15C           12.6574776227      -24.0884383728      -22.4929161132  MEMB      132             0.0000000000
     14998       132  OSM       C14            11.3766126772      -25.2836363388      -20.5350472865  MEMB      132             0.0000000000
     14999       132  OSM       H14A           11.0854001238      -25.4302101296      -19.5054301432  MEMB      132             0.0000000000
     15000       132  OSM       H14B           12.4267576847      -25.4721950361      -20.7025019960  MEMB      132             0.0000000000
     15001       132  OSM       H14C           10.8648808812      -26.0822770973      -21.0514806759  MEMB      132             0.0000000000
     15002       132  OSM       C13            11.8467307016      -22.8919305558      -20.4943237526  MEMB      132             0.0000000000
     15003       132  OSM       H13A           12.8737180572      -23.2186636137      -20.4240190606  MEMB      132             0.0000000000
     15004       132  OSM       H13B           11.4812368517      -22.7274535851      -19.4914471654  MEMB      132             0.0000000000
     15005       132  OSM       H13C           11.7531054534      -21.9752724968      -21.0576817965  MEMB      132             0.0000000000
     15006       132  OSM       C12             9.5140316755      -23.7725514341      -21.1033911084  MEMB      132             0.0000000000
     15007       132  OSM       H12A            9.2074172851      -23.6766467145      -20.0722801047  MEMB      132             0.0000000000
     15008       132  OSM       H12B            9.1614826033      -24.6957353316      -21.5390984270  MEMB      132             0.0000000000
     15009       132  OSM       C11             8.7954316219      -22.6076212479      -21.9392029035  MEMB      132             0.0000000000
     15010       132  OSM       H11A            7.7226861456      -22.6630190363      -21.6555314281  MEMB      132             0.0000000000
     15011       132  OSM       H11B            9.0092849047      -22.8339126333      -23.0056831097  MEMB      132             0.0000000000
     15012       132  OSM       P               9.0587199662      -20.2724045348      -20.6264139535  MEMB      132             0.0000000000
     15013       132  OSM       O13            10.0408843282      -19.1435784214      -20.8415893170  MEMB      132             0.0000000000
     15014       132  OSM       O14             7.5790019564      -20.0806686413      -20.6303465080  MEMB      132             0.0000000000
     15015       132  OSM       O11             9.4919372968      -21.0764364081      -19.3202723339  MEMB      132             0.0000000000
     15016       132  OSM       O12             9.4770995182      -21.3262999652      -21.7458856476  MEMB      132             0.0000000000
     15017       132  OSM       C1S             8.6304146135      -21.3162117288      -18.2041741677  MEMB      132             0.0000000000
     15018       132  OSM       H1S             8.0949771546      -22.2684236278      -18.4064619805  MEMB      132             0.0000000000
     15019       132  OSM       H1T             7.9041461105      -20.5047645431      -17.9841548805  MEMB      132             0.0000000000
     15020       132  OSM       NF              9.0216225680      -22.3334563985      -15.9282492009  MEMB      132             0.0000000000
     15021       132  OSM       HNF             8.9675324408      -21.8602241150      -15.0523873832  MEMB      132             0.0000000000
     15022       132  OSM       C2S             9.5140863329      -21.4364039518      -16.9675966341  MEMB      132             0.0000000000
     15023       132  OSM       H2S            10.4409147337      -21.9159770540      -17.3488049767  MEMB      132             0.0000000000
     15024       132  OSM       C3S             9.7529098988      -19.9734130514      -16.4576712748  MEMB      132             0.0000000000
     15025       132  OSM       H3S             8.7714389229      -19.4652547761      -16.3444871281  MEMB      132             0.0000000000
     15026       132  OSM       O3             10.5528584427      -19.2617236380      -17.3945276495  MEMB      132             0.0000000000
     15027       132  OSM       HO3            10.7356702777      -19.9865584798      -17.9968517242  MEMB      132             0.0000000000
     15028       132  OSM       C4S            10.5150015790      -20.0659707053      -15.1595151504  MEMB      132             0.0000000000
     15029       132  OSM       H4S            11.4886131999      -20.5627253774      -15.2832701011  MEMB      132             0.0000000000
     15030       132  OSM       C5S            10.1091840783      -19.4561961208      -14.0295611662  MEMB      132             0.0000000000
     15031       132  OSM       H5S             9.3382280981      -18.6726150846      -14.0699011002  MEMB      132             0.0000000000
     15032       132  OSM       C6S            10.8343772371      -19.4239046311      -12.6788970316  MEMB      132             0.0000000000
     15033       132  OSM       H6S            10.7347970643      -18.4411265723      -12.1704169355  MEMB      132             0.0000000000
     15034       132  OSM       H6T            11.9252300991      -19.5838783696      -12.8158984513  MEMB      132             0.0000000000
     15035       132  OSM       C7S            10.2865465198      -20.6858535831      -12.0440073353  MEMB      132             0.0000000000
     15036       132  OSM       H7S            10.5854907068      -21.6394812099      -12.5293395792  MEMB      132             0.0000000000
     15037       132  OSM       H7T             9.1771797860      -20.7346851522      -12.0792483223  MEMB      132             0.0000000000
     15038       132  OSM       C8S            10.7362589492      -20.6862653205      -10.5714137198  MEMB      132             0.0000000000
     15039       132  OSM       H8S            11.6851775240      -20.1407301162      -10.3809771386  MEMB      132             0.0000000000
     15040       132  OSM       H8T            10.9080925880      -21.7543909519      -10.3186263530  MEMB      132             0.0000000000
     15041       132  OSM       C9S             9.6249604005      -20.3924074563       -9.5558957474  MEMB      132             0.0000000000
     15042       132  OSM       H9S             8.8887294488      -21.1469337083       -9.9065744077  MEMB      132             0.0000000000
     15043       132  OSM       H9T             9.1193574708      -19.4052100924       -9.6201480785  MEMB      132             0.0000000000
     15044       132  OSM       C10S           10.2301532855      -20.5512480017       -8.1219210682  MEMB      132             0.0000000000
     15045       132  OSM       H10S           10.7224294563      -19.5673201322       -7.9674181441  MEMB      132             0.0000000000
     15046       132  OSM       H10T           10.8710842210      -21.4571438450       -8.0682413200  MEMB      132             0.0000000000
     15047       132  OSM       C11S            9.0343197603      -20.5510798884       -7.0254638371  MEMB      132             0.0000000000
     15048       132  OSM       H11S            8.3681540627      -21.3996681091       -7.2908731662  MEMB      132             0.0000000000
     15049       132  OSM       H11T            8.4186760915      -19.6407251796       -7.1884297910  MEMB      132             0.0000000000
     15050       132  OSM       C12S            9.4965155960      -20.6436899154       -5.5308058349  MEMB      132             0.0000000000
     15051       132  OSM       H12S           10.0896914785      -19.7324475583       -5.3025498459  MEMB      132             0.0000000000
     15052       132  OSM       H12T           10.2121054102      -21.4824380471       -5.3938624431  MEMB      132             0.0000000000
     15053       132  OSM       C13S            8.3956116018      -20.8181924408       -4.5638007219  MEMB      132             0.0000000000
     15054       132  OSM       H13S            7.9618593064      -21.8218016686       -4.7611550956  MEMB      132             0.0000000000
     15055       132  OSM       H13T            7.5961255163      -20.0684501039       -4.7455412946  MEMB      132             0.0000000000
     15056       132  OSM       C14S            8.9427498448      -20.6151060761       -3.1345440760  MEMB      132             0.0000000000
     15057       132  OSM       H14S            9.4699500825      -19.6432564882       -3.0255063575  MEMB      132             0.0000000000
     15058       132  OSM       H14T            9.6052376172      -21.4765228627       -2.9034770907  MEMB      132             0.0000000000
     15059       132  OSM       C15S            7.8344411531      -20.3901424021       -2.1421588038  MEMB      132             0.0000000000
     15060       132  OSM       H15S            7.1684000196      -21.2648566202       -2.3021108794  MEMB      132             0.0000000000
     15061       132  OSM       H15T            7.3002226310      -19.4186694818       -2.0702430768  MEMB      132             0.0000000000
     15062       132  OSM       C16S            8.2178585314      -20.6115474352       -0.6281483214  MEMB      132             0.0000000000
     15063       132  OSM       H16S            8.4876951705      -21.6557501956       -0.3614072063  MEMB      132             0.0000000000
     15064       132  OSM       H16T            7.2741098186      -20.2925578738       -0.1363086741  MEMB      132             0.0000000000
     15065       132  OSM       C17S            9.4216600643      -19.6936723577       -0.1761171215  MEMB      132             0.0000000000
     15066       132  OSM       H17S            9.1524342098      -18.6447327352       -0.4242366265  MEMB      132             0.0000000000
     15067       132  OSM       H17T           10.2270618838      -20.0373783876       -0.8598667890  MEMB      132             0.0000000000
     15068       132  OSM       C18S            9.9161324135      -19.8805175677        1.2111604356  MEMB      132             0.0000000000
     15069       132  OSM       H18S            9.0779299740      -19.7501157035        1.9286089957  MEMB      132             0.0000000000
     15070       132  OSM       H18T           10.8420841191      -19.2851827696        1.3611957297  MEMB      132             0.0000000000
     15071       132  OSM       H18U           10.1381749423      -20.9598471123        1.3528128576  MEMB      132             0.0000000000
     15072       132  OSM       C1F             8.8008943789      -23.6683292548      -15.9923883481  MEMB      132             0.0000000000
     15073       132  OSM       OF              8.8159027291      -24.3437984376      -17.0069109661  MEMB      132             0.0000000000
     15074       132  OSM       C2F             8.3468435369      -24.2218265397      -14.6777514706  MEMB      132             0.0000000000
     15075       132  OSM       H2F             7.3279124229      -24.5782007384      -14.9406167443  MEMB      132             0.0000000000
     15076       132  OSM       H2G             8.2953726308      -23.5775424414      -13.7741088871  MEMB      132             0.0000000000
     15077       132  OSM       C3F             9.2256156393      -25.4883735885      -14.2947924939  MEMB      132             0.0000000000
     15078       132  OSM       H3F             8.8415317264      -26.4086493156      -14.7845817239  MEMB      132             0.0000000000
     15079       132  OSM       H3G             8.8236401788      -25.6786962967      -13.2766989479  MEMB      132             0.0000000000
     15080       132  OSM       C4F            10.7183621039      -25.1923669713      -14.4418724662  MEMB      132             0.0000000000
     15081       132  OSM       H4F            10.7805043923      -24.1606211302      -14.0344907061  MEMB      132             0.0000000000
     15082       132  OSM       H4G            11.1399116157      -25.0597781828      -15.4612043147  MEMB      132             0.0000000000
     15083       132  OSM       C5F            11.6018576614      -26.2506761623      -13.6006388380  MEMB      132             0.0000000000
     15084       132  OSM       H5F            12.6568192395      -25.9032448019      -13.6264955704  MEMB      132             0.0000000000
     15085       132  OSM       H5G            11.5170882456      -27.2898119634      -13.9844769207  MEMB      132             0.0000000000
     15086       132  OSM       C6F            11.2390106183      -26.3927771175      -12.0831002217  MEMB      132             0.0000000000
     15087       132  OSM       H6F            12.0197773618      -27.0031297112      -11.5809102222  MEMB      132             0.0000000000
     15088       132  OSM       H6G            10.1779399330      -26.6217836605      -11.8464442520  MEMB      132             0.0000000000
     15089       132  OSM       C7F            11.3116452721      -24.9955499117      -11.3630660620  MEMB      132             0.0000000000
     15090       132  OSM       H7F            10.7223959375      -24.1645652577      -11.8064290955  MEMB      132             0.0000000000
     15091       132  OSM       H7G            12.3409836033      -24.6346581890      -11.5741126132  MEMB      132             0.0000000000
     15092       132  OSM       C8F            10.9510379988      -25.0570945041       -9.7865097382  MEMB      132             0.0000000000
     15093       132  OSM       H8F            10.0360715458      -25.6805165985       -9.6943017061  MEMB      132             0.0000000000
     15094       132  OSM       H8G            10.7152580714      -24.0007085623       -9.5359543644  MEMB      132             0.0000000000
     15095       132  OSM       C9F            12.0236791113      -25.7606453148       -8.9928196850  MEMB      132             0.0000000000
     15096       132  OSM       H9F            12.4220582696      -26.7317927246       -9.3217063656  MEMB      132             0.0000000000
     15097       132  OSM       C10F           12.7089907059      -25.3354033146       -7.9364214183  MEMB      132             0.0000000000
     15098       132  OSM       H10F           13.5051443877      -26.0249651330       -7.6191777162  MEMB      132             0.0000000000
     15099       132  OSM       C11F           12.6701915381      -24.0239629537       -7.2008812336  MEMB      132             0.0000000000
     15100       132  OSM       H11F           12.5974170266      -23.1267315802       -7.8520341613  MEMB      132             0.0000000000
     15101       132  OSM       H11G           13.6258971019      -23.9350472262       -6.6413797264  MEMB      132             0.0000000000
     15102       132  OSM       C12F           11.4736931655      -23.7923321167       -6.2718849243  MEMB      132             0.0000000000
     15103       132  OSM       H12F           10.5092304579      -24.0442794868       -6.7624507566  MEMB      132             0.0000000000
     15104       132  OSM       H12G           11.4246550669      -22.6886646447       -6.1542651318  MEMB      132             0.0000000000
     15105       132  OSM       C13F           11.4938187205      -24.5435548116       -4.9153500113  MEMB      132             0.0000000000
     15106       132  OSM       H13F           12.2289791406      -24.0329751866       -4.2571953378  MEMB      132             0.0000000000
     15107       132  OSM       H13G           11.8642001242      -25.5812482117       -5.0579373180  MEMB      132             0.0000000000
     15108       132  OSM       C14F           10.1219487958      -24.6590302861       -4.1797384336  MEMB      132             0.0000000000
     15109       132  OSM       H14F            9.4482775170      -25.1053001432       -4.9421898771  MEMB      132             0.0000000000
     15110       132  OSM       H14G            9.6958917533      -23.6416472790       -4.0465917123  MEMB      132             0.0000000000
     15111       132  OSM       C15F           10.0389180523      -25.4221432961       -2.8794559253  MEMB      132             0.0000000000
     15112       132  OSM       H15F           10.5252640562      -24.7859739090       -2.1093422055  MEMB      132             0.0000000000
     15113       132  OSM       H15G           10.6024599838      -26.3796080263       -2.8811793309  MEMB      132             0.0000000000
     15114       132  OSM       C16F            8.6278479498      -25.6261861135       -2.4279951184  MEMB      132             0.0000000000
     15115       132  OSM       H16F            8.6351812238      -26.3850139626       -1.6165483983  MEMB      132             0.0000000000
     15116       132  OSM       H16G            7.9522605989      -26.0791913673       -3.1847574820  MEMB      132             0.0000000000
     15117       132  OSM       C17F            7.9244395003      -24.3562773616       -1.8910088006  MEMB      132             0.0000000000
     15118       132  OSM       H17F            8.2477995980      -23.4197370463       -2.3936532738  MEMB      132             0.0000000000
     15119       132  OSM       H17G            8.3337747057      -24.2667322071       -0.8620551075  MEMB      132             0.0000000000
     15120       132  OSM       C18F            6.4037967271      -24.5247746639       -1.7797823611  MEMB      132             0.0000000000
     15121       132  OSM       H18F            5.8171231898      -23.6256452237       -1.4939483427  MEMB      132             0.0000000000
     15122       132  OSM       H18G            6.2946999564      -25.2749915326       -0.9676282775  MEMB      132             0.0000000000
     15123       132  OSM       H18H            5.9258158848      -24.8475009604       -2.7293631195  MEMB      132             0.0000000000
     15124       133  OSM       N              14.9761450674      -18.5024902829      -21.8095739555  MEMB      133             0.0000000000
     15125       133  OSM       C15            14.9400883369      -19.6949201919      -20.9669957364  MEMB      133             0.0000000000
     15126       133  OSM       H15A           15.8228289187      -19.5601890813      -20.3595282166  MEMB      133             0.0000000000
     15127       133  OSM       H15B           15.0292293500      -20.6703979041      -21.4218551062  MEMB      133             0.0000000000
     15128       133  OSM       H15C           14.0355121896      -19.6614929975      -20.3779077712  MEMB      133             0.0000000000
     15129       133  OSM       C14            15.9411644686      -18.6420389470      -22.9827406230  MEMB      133             0.0000000000
     15130       133  OSM       H14A           15.6381773639      -19.6004108847      -23.3778630875  MEMB      133             0.0000000000
     15131       133  OSM       H14B           16.9165232344      -18.8451916020      -22.5658422569  MEMB      133             0.0000000000
     15132       133  OSM       H14C           15.7582764578      -17.8279943825      -23.6685129402  MEMB      133             0.0000000000
     15133       133  OSM       C13            13.6504634871      -18.4121181431      -22.5905150982  MEMB      133             0.0000000000
     15134       133  OSM       H13A           13.7624027987      -17.4119496428      -22.9823473962  MEMB      133             0.0000000000
     15135       133  OSM       H13B           12.8202221360      -18.6108768821      -21.9290058386  MEMB      133             0.0000000000
     15136       133  OSM       H13C           13.7819591864      -19.1228583962      -23.3929844178  MEMB      133             0.0000000000
     15137       133  OSM       C12            15.1032841533      -17.2730921222      -20.8844201063  MEMB      133             0.0000000000
     15138       133  OSM       H12A           14.3400553548      -17.3752489280      -20.1271580120  MEMB      133             0.0000000000
     15139       133  OSM       H12B           14.9566826998      -16.3762241020      -21.4679746441  MEMB      133             0.0000000000
     15140       133  OSM       C11            16.4226164897      -17.1226962981      -20.1002656753  MEMB      133             0.0000000000
     15141       133  OSM       H11A           16.5132913999      -17.9847230497      -19.4052771676  MEMB      133             0.0000000000
     15142       133  OSM       H11B           16.4121097107      -16.2692843139      -19.3890002145  MEMB      133             0.0000000000
     15143       133  OSM       P              18.9909619471      -17.1408664090      -20.3319184426  MEMB      133             0.0000000000
     15144       133  OSM       O13            19.3748857409      -18.5341115211      -20.2000111879  MEMB      133             0.0000000000
     15145       133  OSM       O14            19.9232359188      -16.2930162472      -21.1667786853  MEMB      133             0.0000000000
     15146       133  OSM       O11            18.7230871917      -16.4324551578      -18.9699388821  MEMB      133             0.0000000000
     15147       133  OSM       O12            17.5701165035      -17.0965539809      -20.9968416054  MEMB      133             0.0000000000
     15148       133  OSM       C1S            19.7526852971      -16.3132016550      -18.0069620919  MEMB      133             0.0000000000
     15149       133  OSM       H1S            20.2145075286      -15.3041952691      -18.0612485054  MEMB      133             0.0000000000
     15150       133  OSM       H1T            20.5252599974      -17.1083211584      -18.0793114856  MEMB      133             0.0000000000
     15151       133  OSM       NF             18.6312582705      -17.7381764559      -16.3610074817  MEMB      133             0.0000000000
     15152       133  OSM       HNF            17.6692646341      -17.9980635274      -16.3931950952  MEMB      133             0.0000000000
     15153       133  OSM       C2S            18.9818071979      -16.3968845797      -16.6746296492  MEMB      133             0.0000000000
     15154       133  OSM       H2S            19.6502541992      -16.1365380058      -15.8262673112  MEMB      133             0.0000000000
     15155       133  OSM       C3S            17.7236862097      -15.5062003149      -16.5969769278  MEMB      133             0.0000000000
     15156       133  OSM       H3S            16.9359558116      -15.7148859379      -17.3521271609  MEMB      133             0.0000000000
     15157       133  OSM       O3             18.1727595360      -14.1406682622      -16.8085029799  MEMB      133             0.0000000000
     15158       133  OSM       HO3            19.0656906960      -14.2153346846      -17.1530304968  MEMB      133             0.0000000000
     15159       133  OSM       C4S            17.0118369073      -15.5458312379      -15.2753191331  MEMB      133             0.0000000000
     15160       133  OSM       H4S            16.3225040695      -16.3997970737      -15.2007375365  MEMB      133             0.0000000000
     15161       133  OSM       C5S            17.0985010198      -14.8082944483      -14.1443847093  MEMB      133             0.0000000000
     15162       133  OSM       H5S            17.7872149304      -13.9597277401      -14.0194523407  MEMB      133             0.0000000000
     15163       133  OSM       C6S            16.1556121574      -15.0826932217      -12.9959561126  MEMB      133             0.0000000000
     15164       133  OSM       H6S            15.1941496158      -14.5261022610      -13.0067845458  MEMB      133             0.0000000000
     15165       133  OSM       H6T            16.7495610558      -14.7101086630      -12.1341406128  MEMB      133             0.0000000000
     15166       133  OSM       C7S            15.9650111398      -16.6296536023      -12.7478801922  MEMB      133             0.0000000000
     15167       133  OSM       H7S            15.3516908843      -16.9726224143      -13.6084214196  MEMB      133             0.0000000000
     15168       133  OSM       H7T            15.3740734034      -16.7634006643      -11.8166309102  MEMB      133             0.0000000000
     15169       133  OSM       C8S            17.2166522693      -17.5643668643      -12.7249929533  MEMB      133             0.0000000000
     15170       133  OSM       H8S            17.4044559236      -17.7097450458      -13.8103111442  MEMB      133             0.0000000000
     15171       133  OSM       H8T            16.9987371871      -18.6026232493      -12.3950573911  MEMB      133             0.0000000000
     15172       133  OSM       C9S            18.3280093833      -17.0921513153      -11.8135530434  MEMB      133             0.0000000000
     15173       133  OSM       H9S            18.7366018339      -16.1058248856      -12.1210159209  MEMB      133             0.0000000000
     15174       133  OSM       H9T            19.1372739980      -17.8507176664      -11.8767115601  MEMB      133             0.0000000000
     15175       133  OSM       C10S           17.7625333040      -17.2391837211      -10.4391763420  MEMB      133             0.0000000000
     15176       133  OSM       H10S           17.1406237227      -18.1498214892      -10.3039414513  MEMB      133             0.0000000000
     15177       133  OSM       H10T           17.1849476118      -16.3509074830      -10.1049893468  MEMB      133             0.0000000000
     15178       133  OSM       C11S           18.8316112797      -17.3779453001       -9.3836775501  MEMB      133             0.0000000000
     15179       133  OSM       H11S           19.7907273031      -17.4864620415       -9.9338057514  MEMB      133             0.0000000000
     15180       133  OSM       H11T           18.6669606111      -18.3266536486       -8.8294539443  MEMB      133             0.0000000000
     15181       133  OSM       C12S           18.9967774748      -16.1936548959       -8.4877374138  MEMB      133             0.0000000000
     15182       133  OSM       H12S           18.7947955456      -15.1994630344       -8.9406249272  MEMB      133             0.0000000000
     15183       133  OSM       H12T           20.0625631377      -16.1780398226       -8.1744041237  MEMB      133             0.0000000000
     15184       133  OSM       C13S           18.1829416296      -16.2716580789       -7.1744860850  MEMB      133             0.0000000000
     15185       133  OSM       H13S           18.6996020855      -15.5380940838       -6.5193019676  MEMB      133             0.0000000000
     15186       133  OSM       H13T           18.2999714969      -17.1775399674       -6.5420290376  MEMB      133             0.0000000000
     15187       133  OSM       C14S           16.7156151839      -16.0510408708       -7.3756679128  MEMB      133             0.0000000000
     15188       133  OSM       H14S           16.1470157362      -16.5340096749       -8.1989276939  MEMB      133             0.0000000000
     15189       133  OSM       H14T           16.4802006306      -14.9659153920       -7.3382025927  MEMB      133             0.0000000000
     15190       133  OSM       C15S           15.9461737020      -16.4231860017       -6.0649122500  MEMB      133             0.0000000000
     15191       133  OSM       H15S           16.0096600131      -17.5272419098       -5.9583701019  MEMB      133             0.0000000000
     15192       133  OSM       H15T           14.8935805200      -16.2572536111       -6.3792921327  MEMB      133             0.0000000000
     15193       133  OSM       C16S           16.3345956519      -15.5044010779       -4.8863028535  MEMB      133             0.0000000000
     15194       133  OSM       H16S           16.3682111417      -14.4147692041       -5.1005303607  MEMB      133             0.0000000000
     15195       133  OSM       H16T           17.4029004148      -15.6699145516       -4.6300766801  MEMB      133             0.0000000000
     15196       133  OSM       C17S           15.4638075611      -15.6772662685       -3.5928443535  MEMB      133             0.0000000000
     15197       133  OSM       H17S           15.0303022193      -16.6927262201       -3.7162748491  MEMB      133             0.0000000000
     15198       133  OSM       H17T           14.5429954060      -15.0556981671       -3.6017628180  MEMB      133             0.0000000000
     15199       133  OSM       C18S           16.4139923589      -15.4769212348       -2.3399997226  MEMB      133             0.0000000000
     15200       133  OSM       H18S           17.3354985764      -16.0968614352       -2.3686550437  MEMB      133             0.0000000000
     15201       133  OSM       H18T           15.9237597117      -15.5840282893       -1.3487780648  MEMB      133             0.0000000000
     15202       133  OSM       H18U           16.7763281212      -14.4310184551       -2.4355053462  MEMB      133             0.0000000000
     15203       133  OSM       C1F            19.5596613658      -18.7851965763      -16.2393532127  MEMB      133             0.0000000000
     15204       133  OSM       OF             20.7649727250      -18.5553850225      -16.1385251248  MEMB      133             0.0000000000
     15205       133  OSM       C2F            19.1687871310      -20.1610498559      -16.2148036698  MEMB      133             0.0000000000
     15206       133  OSM       H2F            19.4437781573      -20.7541524999      -17.1130965735  MEMB      133             0.0000000000
     15207       133  OSM       H2G            18.0616878924      -20.2456356665      -16.1761073526  MEMB      133             0.0000000000
     15208       133  OSM       C3F            19.6426706619      -20.8430614164      -14.9928296182  MEMB      133             0.0000000000
     15209       133  OSM       H3F            20.7320605075      -21.0585262992      -14.9592823011  MEMB      133             0.0000000000
     15210       133  OSM       H3G            19.0415010663      -21.7713733897      -14.8872222131  MEMB      133             0.0000000000
     15211       133  OSM       C4F            19.3743464210      -20.0457323442      -13.6942276563  MEMB      133             0.0000000000
     15212       133  OSM       H4F            18.3251532789      -19.7529489896      -13.4756116112  MEMB      133             0.0000000000
     15213       133  OSM       H4G            19.9534386368      -19.1007806366      -13.7719427554  MEMB      133             0.0000000000
     15214       133  OSM       C5F            19.8723786025      -20.8018374207      -12.3955456476  MEMB      133             0.0000000000
     15215       133  OSM       H5F            19.9523987064      -20.0202228587      -11.6100546233  MEMB      133             0.0000000000
     15216       133  OSM       H5G            20.9115632801      -21.1868796360      -12.4740239492  MEMB      133             0.0000000000
     15217       133  OSM       C6F            18.9604069642      -21.9272015496      -11.9068256445  MEMB      133             0.0000000000
     15218       133  OSM       H6F            19.4079926264      -22.2995737537      -10.9606093117  MEMB      133             0.0000000000
     15219       133  OSM       H6G            19.0376816040      -22.8104847834      -12.5762731262  MEMB      133             0.0000000000
     15220       133  OSM       C7F            17.4837175852      -21.3461079119      -11.6893407084  MEMB      133             0.0000000000
     15221       133  OSM       H7F            16.9774544902      -21.3721803993      -12.6779451511  MEMB      133             0.0000000000
     15222       133  OSM       H7G            17.6633320139      -20.2966174876      -11.3721195357  MEMB      133             0.0000000000
     15223       133  OSM       C8F            16.8314444619      -22.0366038098      -10.5538030559  MEMB      133             0.0000000000
     15224       133  OSM       H8F            17.4682320600      -21.9321572286       -9.6494173500  MEMB      133             0.0000000000
     15225       133  OSM       H8G            16.7047310562      -23.1228695661      -10.7494858096  MEMB      133             0.0000000000
     15226       133  OSM       C9F            15.4635845652      -21.3518955817      -10.3746149607  MEMB      133             0.0000000000
     15227       133  OSM       H9F            14.7940624677      -21.3631351526      -11.2473190357  MEMB      133             0.0000000000
     15228       133  OSM       C10F           14.9970392008      -20.6035597149       -9.3468968634  MEMB      133             0.0000000000
     15229       133  OSM       H10F           13.9255363048      -20.3862036503       -9.4678844348  MEMB      133             0.0000000000
     15230       133  OSM       C11F           15.7055509859      -20.2590716293       -8.1265905030  MEMB      133             0.0000000000
     15231       133  OSM       H11F           15.3488504855      -19.2653128703       -7.7808603493  MEMB      133             0.0000000000
     15232       133  OSM       H11G           16.7764140103      -20.0286703135       -8.3123012181  MEMB      133             0.0000000000
     15233       133  OSM       C12F           15.7539564057      -21.2582952885       -6.9320972741  MEMB      133             0.0000000000
     15234       133  OSM       H12F           16.3957325083      -22.1310290869       -7.1786337171  MEMB      133             0.0000000000
     15235       133  OSM       H12G           14.7409802230      -21.6561170372       -6.7086283156  MEMB      133             0.0000000000
     15236       133  OSM       C13F           16.2761760952      -20.6287265794       -5.5714291764  MEMB      133             0.0000000000
     15237       133  OSM       H13F           15.5753006893      -19.8302289402       -5.2466273625  MEMB      133             0.0000000000
     15238       133  OSM       H13G           17.2335355725      -20.2158426868       -5.9552395972  MEMB      133             0.0000000000
     15239       133  OSM       C14F           16.5642226391      -21.6121713112       -4.5271564009  MEMB      133             0.0000000000
     15240       133  OSM       H14F           17.0107924288      -22.4700492704       -5.0739113108  MEMB      133             0.0000000000
     15241       133  OSM       H14G           15.6385312575      -21.9429604776       -4.0094738869  MEMB      133             0.0000000000
     15242       133  OSM       C15F           17.4701361252      -21.1249096773       -3.3340460171  MEMB      133             0.0000000000
     15243       133  OSM       H15F           18.3371017336      -20.5951292655       -3.7835164563  MEMB      133             0.0000000000
     15244       133  OSM       H15G           17.9688517464      -21.9944942495       -2.8550620379  MEMB      133             0.0000000000
     15245       133  OSM       C16F           16.8639643950      -20.1533941435       -2.2843343111  MEMB      133             0.0000000000
     15246       133  OSM       H16F           16.1340827510      -20.6209088825       -1.5893350181  MEMB      133             0.0000000000
     15247       133  OSM       H16G           16.3926103166      -19.2509103985       -2.7289356986  MEMB      133             0.0000000000
     15248       133  OSM       C17F           18.0115466500      -19.6036501019       -1.4097683246  MEMB      133             0.0000000000
     15249       133  OSM       H17F           18.7491813259      -19.0844739175       -2.0583613645  MEMB      133             0.0000000000
     15250       133  OSM       H17G           18.5179291257      -20.4223932633       -0.8551895660  MEMB      133             0.0000000000
     15251       133  OSM       C18F           17.6320145926      -18.5309042636       -0.3983148128  MEMB      133             0.0000000000
     15252       133  OSM       H18F           17.1394137370      -19.0443590774        0.4549319306  MEMB      133             0.0000000000
     15253       133  OSM       H18G           16.9648053679      -17.7855299848       -0.8816046576  MEMB      133             0.0000000000
     15254       133  OSM       H18H           18.5332146036      -17.9930564874       -0.0337888182  MEMB      133             0.0000000000
     15255       134  SLPC      N             -24.4042451916      -12.4977622472      -18.1692268334  MEMB      134             0.0000000000
     15256       134  SLPC      C13           -25.0799486912      -11.5020937843      -17.3727527047  MEMB      134             0.0000000000
     15257       134  SLPC      H13A          -25.2133551725      -10.6011908007      -17.9532495431  MEMB      134             0.0000000000
     15258       134  SLPC      H13B          -26.0190948664      -11.8227163576      -16.9466006992  MEMB      134             0.0000000000
     15259       134  SLPC      H13C          -24.4680131255      -11.1727593675      -16.5460279308  MEMB      134             0.0000000000
     15260       134  SLPC      C14           -25.3913769478      -13.1136399964      -19.1531812535  MEMB      134             0.0000000000
     15261       134  SLPC      H14A          -26.1722019062      -13.4556428599      -18.4900477166  MEMB      134             0.0000000000
     15262       134  SLPC      H14B          -25.7207076456      -12.2671668895      -19.7374968889  MEMB      134             0.0000000000
     15263       134  SLPC      H14C          -24.9360203311      -13.9019820758      -19.7341864304  MEMB      134             0.0000000000
     15264       134  SLPC      C15           -24.0652529641      -13.6886838566      -17.2596719967  MEMB      134             0.0000000000
     15265       134  SLPC      H15A          -24.9861552518      -13.8923094311      -16.7334824471  MEMB      134             0.0000000000
     15266       134  SLPC      H15B          -23.6965479600      -14.4967234024      -17.8741056706  MEMB      134             0.0000000000
     15267       134  SLPC      H15C          -23.2981806674      -13.4426777066      -16.5403103988  MEMB      134             0.0000000000
     15268       134  SLPC      C12           -23.2043661899      -11.9326004098      -18.9105208345  MEMB      134             0.0000000000
     15269       134  SLPC      H12A          -23.5309234938      -11.3572632749      -19.7641879363  MEMB      134             0.0000000000
     15270       134  SLPC      H12B          -22.6421451912      -12.7705385272      -19.2954456065  MEMB      134             0.0000000000
     15271       134  SLPC      C11           -22.1457175459      -11.0403149749      -18.0576342800  MEMB      134             0.0000000000
     15272       134  SLPC      H11A          -22.3447256636       -9.9574923668      -18.2066707424  MEMB      134             0.0000000000
     15273       134  SLPC      H11B          -21.1814422548      -11.2125230285      -18.5818847076  MEMB      134             0.0000000000
     15274       134  SLPC      P             -21.9765111699      -10.3439979399      -15.5623929848  MEMB      134             0.0000000000
     15275       134  SLPC      O13           -22.0066516514      -10.8788084087      -14.2158741513  MEMB      134             0.0000000000
     15276       134  SLPC      O14           -20.8185959287       -9.4683286236      -15.8096810829  MEMB      134             0.0000000000
     15277       134  SLPC      O12           -21.9711169441      -11.4591588523      -16.6734944723  MEMB      134             0.0000000000
     15278       134  SLPC      O11           -23.3185856680       -9.6212398391      -15.8155694055  MEMB      134             0.0000000000
     15279       134  SLPC      C1            -23.4728391986       -8.2286495551      -16.1442000406  MEMB      134             0.0000000000
     15280       134  SLPC      HA            -22.5308423650       -7.6615685655      -16.3035174237  MEMB      134             0.0000000000
     15281       134  SLPC      HB            -24.0957601461       -8.1411086510      -17.0599659697  MEMB      134             0.0000000000
     15282       134  SLPC      C2            -24.2986875393       -7.5121440179      -15.0242712248  MEMB      134             0.0000000000
     15283       134  SLPC      HS            -24.3692157727       -6.4431541032      -15.3185621834  MEMB      134             0.0000000000
     15284       134  SLPC      O21           -23.5297922985       -7.5104195551      -13.7969699065  MEMB      134             0.0000000000
     15285       134  SLPC      C21           -23.9129601265       -6.7591333963      -12.8158662653  MEMB      134             0.0000000000
     15286       134  SLPC      O22           -24.6409582267       -5.7889887433      -12.8569228645  MEMB      134             0.0000000000
     15287       134  SLPC      C22           -23.1568268895       -7.3358916391      -11.6473537307  MEMB      134             0.0000000000
     15288       134  SLPC      H2R           -23.2365407750       -8.4432732047      -11.6882531000  MEMB      134             0.0000000000
     15289       134  SLPC      H2S           -22.1084731401       -6.9682790178      -11.6356555663  MEMB      134             0.0000000000
     15290       134  SLPC      C3            -25.7300178185       -8.0824671029      -14.7063721393  MEMB      134             0.0000000000
     15291       134  SLPC      HX            -26.3178508781       -8.2166258292      -15.6395251054  MEMB      134             0.0000000000
     15292       134  SLPC      HY            -26.1810860029       -7.3007403644      -14.0584815665  MEMB      134             0.0000000000
     15293       134  SLPC      O31           -25.6259087949       -9.4749413038      -14.2180162025  MEMB      134             0.0000000000
     15294       134  SLPC      C31           -26.0127969628       -9.6854485502      -12.9791199568  MEMB      134             0.0000000000
     15295       134  SLPC      O32           -26.3043209037       -8.8544787696      -12.1375597964  MEMB      134             0.0000000000
     15296       134  SLPC      C32           -26.0334080965      -11.2066980013      -12.7380540126  MEMB      134             0.0000000000
     15297       134  SLPC      H2X           -25.0617586857      -11.7115567837      -12.9260323375  MEMB      134             0.0000000000
     15298       134  SLPC      H2Y           -26.7001510931      -11.6656524350      -13.4990635581  MEMB      134             0.0000000000
     15299       134  SLPC      C23           -23.8962210578       -6.9162407960      -10.3190598387  MEMB      134             0.0000000000
     15300       134  SLPC      H3R           -24.9842148002       -7.1394400538      -10.2912623983  MEMB      134             0.0000000000
     15301       134  SLPC      H3S           -23.5681791938       -5.8602170873      -10.2117133543  MEMB      134             0.0000000000
     15302       134  SLPC      C24           -23.2309841557       -7.6156021592       -9.1388747914  MEMB      134             0.0000000000
     15303       134  SLPC      H4R           -22.1556018939       -7.5147339792       -9.3990670388  MEMB      134             0.0000000000
     15304       134  SLPC      H4S           -23.4624368463       -8.6967043200       -9.2482762379  MEMB      134             0.0000000000
     15305       134  SLPC      C25           -23.5976868480       -7.0886899093       -7.7241286082  MEMB      134             0.0000000000
     15306       134  SLPC      H5R           -23.6870985212       -5.9979880052       -7.9156911650  MEMB      134             0.0000000000
     15307       134  SLPC      H5S           -22.7998307852       -7.3415537718       -6.9935083236  MEMB      134             0.0000000000
     15308       134  SLPC      C26           -24.7900658032       -7.5490721675       -7.0084156715  MEMB      134             0.0000000000
     15309       134  SLPC      H6R           -25.7124980393       -7.2934278363       -7.5724067245  MEMB      134             0.0000000000
     15310       134  SLPC      H6S           -24.9752793065       -7.1103925642       -6.0046342982  MEMB      134             0.0000000000
     15311       134  SLPC      C27           -24.8721237405       -9.1072277487       -6.8666993319  MEMB      134             0.0000000000
     15312       134  SLPC      H7R           -23.9046013479       -9.5108801208       -6.4988867460  MEMB      134             0.0000000000
     15313       134  SLPC      H7S           -25.0309058299       -9.5007000696       -7.8934849525  MEMB      134             0.0000000000
     15314       134  SLPC      C28           -26.0626786654       -9.4793257853       -5.9510347133  MEMB      134             0.0000000000
     15315       134  SLPC      H8R           -26.9128618256       -8.8815586706       -6.3436975052  MEMB      134             0.0000000000
     15316       134  SLPC      H8S           -25.7939984931       -9.0301375787       -4.9710547717  MEMB      134             0.0000000000
     15317       134  SLPC      C29           -26.3967984823      -11.0250610754       -5.9295245543  MEMB      134             0.0000000000
     15318       134  SLPC      H9R           -26.1024644045      -11.4877191101       -6.8831050411  MEMB      134             0.0000000000
     15319       134  SLPC      C210          -26.8436277411      -11.7535412827       -4.9339412071  MEMB      134             0.0000000000
     15320       134  SLPC      H10R          -26.8257173047      -12.8486105634       -5.0364227938  MEMB      134             0.0000000000
     15321       134  SLPC      C211          -27.1899877503      -11.3017268434       -3.5350663703  MEMB      134             0.0000000000
     15322       134  SLPC      H11R          -27.7148460061      -12.0287700231       -2.8791303097  MEMB      134             0.0000000000
     15323       134  SLPC      H11S          -27.9804143195      -10.5209931237       -3.5338239172  MEMB      134             0.0000000000
     15324       134  SLPC      C212          -25.9831407223      -10.7357173194       -2.7864972532  MEMB      134             0.0000000000
     15325       134  SLPC      H12R          -25.1156185861      -11.4081737693       -2.8586588042  MEMB      134             0.0000000000
     15326       134  SLPC      C213          -25.9122241130       -9.5671159895       -2.0973082112  MEMB      134             0.0000000000
     15327       134  SLPC      H13R          -24.9466579416       -9.1778031496       -1.7421781691  MEMB      134             0.0000000000
     15328       134  SLPC      C214          -27.0841511737       -8.6091838460       -1.9000728385  MEMB      134             0.0000000000
     15329       134  SLPC      H14R          -27.9668416894       -9.0135308801       -2.4401489560  MEMB      134             0.0000000000
     15330       134  SLPC      H14S          -26.8587007688       -7.5676846790       -2.2143540664  MEMB      134             0.0000000000
     15331       134  SLPC      C215          -27.3625563884       -8.5363010391       -0.3899034034  MEMB      134             0.0000000000
     15332       134  SLPC      H15R          -26.4317979365       -8.2563852859        0.1482939348  MEMB      134             0.0000000000
     15333       134  SLPC      H15S          -27.6803210782       -9.5303193390       -0.0087550141  MEMB      134             0.0000000000
     15334       134  SLPC      C216          -28.2334516597       -7.3639980436        0.0679299921  MEMB      134             0.0000000000
     15335       134  SLPC      H16R          -28.5620595747       -7.6910436055        1.0775729196  MEMB      134             0.0000000000
     15336       134  SLPC      H16S          -29.1163818538       -7.1628202159       -0.5757181915  MEMB      134             0.0000000000
     15337       134  SLPC      C217          -27.5273719759       -6.0203315914        0.2240935876  MEMB      134             0.0000000000
     15338       134  SLPC      H17R          -28.2834177981       -5.2698586087        0.5395400040  MEMB      134             0.0000000000
     15339       134  SLPC      H17S          -27.2238231871       -5.6731622009       -0.7866748419  MEMB      134             0.0000000000
     15340       134  SLPC      C218          -26.2602050133       -5.9198611857        1.0292254528  MEMB      134             0.0000000000
     15341       134  SLPC      H18R          -26.1973235968       -6.4167901453        2.0209047386  MEMB      134             0.0000000000
     15342       134  SLPC      H18S          -25.8869774210       -4.8960023919        1.2454107568  MEMB      134             0.0000000000
     15343       134  SLPC      H18T          -25.4378182812       -6.5186443201        0.5826181743  MEMB      134             0.0000000000
     15344       134  SLPC      C33           -26.4114770030      -11.6868254316      -11.3556338323  MEMB      134             0.0000000000
     15345       134  SLPC      H3X           -26.6032925673      -12.7787941932      -11.2839952808  MEMB      134             0.0000000000
     15346       134  SLPC      H3Y           -27.4056777271      -11.1999565417      -11.2615891374  MEMB      134             0.0000000000
     15347       134  SLPC      C34           -25.5871409892      -11.2523241961      -10.1147842853  MEMB      134             0.0000000000
     15348       134  SLPC      H4X           -26.1678977291      -11.6948568798       -9.2774030014  MEMB      134             0.0000000000
     15349       134  SLPC      H4Y           -25.5074172600      -10.1810708761       -9.8312685144  MEMB      134             0.0000000000
     15350       134  SLPC      C35           -24.1397189109      -11.8292090369      -10.0022733929  MEMB      134             0.0000000000
     15351       134  SLPC      H5X           -23.4620925815      -10.9510195548      -10.0649378369  MEMB      134             0.0000000000
     15352       134  SLPC      H5Y           -23.9589128067      -12.5117506013      -10.8600424491  MEMB      134             0.0000000000
     15353       134  SLPC      C36           -23.9068626737      -12.6096156330       -8.7054696360  MEMB      134             0.0000000000
     15354       134  SLPC      H6X           -24.4659112201      -13.5693646114       -8.6796384028  MEMB      134             0.0000000000
     15355       134  SLPC      H6Y           -24.2408585225      -11.8722124699       -7.9445465995  MEMB      134             0.0000000000
     15356       134  SLPC      C37           -22.4355305153      -12.9894011230       -8.4686069448  MEMB      134             0.0000000000
     15357       134  SLPC      H7X           -21.9172581362      -12.0210501748       -8.6359716681  MEMB      134             0.0000000000
     15358       134  SLPC      H7Y           -22.1065802970      -13.7828397259       -9.1732829531  MEMB      134             0.0000000000
     15359       134  SLPC      C38           -22.2125415602      -13.4020236937       -6.9545732655  MEMB      134             0.0000000000
     15360       134  SLPC      H8X           -21.3535373481      -14.1056200539       -6.9173591269  MEMB      134             0.0000000000
     15361       134  SLPC      H8Y           -23.0970680601      -13.9717737098       -6.5977556005  MEMB      134             0.0000000000
     15362       134  SLPC      C39           -22.0742827170      -12.1794632438       -5.9683841647  MEMB      134             0.0000000000
     15363       134  SLPC      H9X           -22.1011854155      -12.6025012645       -4.9414288807  MEMB      134             0.0000000000
     15364       134  SLPC      H9Y           -22.9368415608      -11.4890056192       -6.0849230020  MEMB      134             0.0000000000
     15365       134  SLPC      C310          -20.7835579254      -11.3927311341       -6.1007774905  MEMB      134             0.0000000000
     15366       134  SLPC      H10X          -20.5551986238      -11.2105652236       -7.1726863618  MEMB      134             0.0000000000
     15367       134  SLPC      H10Y          -19.9515386773      -12.0175963373       -5.7114076565  MEMB      134             0.0000000000
     15368       134  SLPC      C311          -20.9069834612      -10.0373054344       -5.3196539797  MEMB      134             0.0000000000
     15369       134  SLPC      H11X          -21.8319791208       -9.6399262320       -5.7895417281  MEMB      134             0.0000000000
     15370       134  SLPC      H11Y          -20.0209174912       -9.4163096153       -5.5717896126  MEMB      134             0.0000000000
     15371       134  SLPC      C312          -21.0518399969      -10.1475626887       -3.7862520096  MEMB      134             0.0000000000
     15372       134  SLPC      H12X          -20.1831719875      -10.6966921366       -3.3641223926  MEMB      134             0.0000000000
     15373       134  SLPC      H12Y          -21.9019974302      -10.7839962272       -3.4599007562  MEMB      134             0.0000000000
     15374       134  SLPC      C313          -21.3818837967       -8.8277745552       -3.0895443632  MEMB      134             0.0000000000
     15375       134  SLPC      H13X          -22.2883863549       -8.2510539186       -3.3723293788  MEMB      134             0.0000000000
     15376       134  SLPC      H13Y          -20.6237910161       -8.0726809370       -3.3886253453  MEMB      134             0.0000000000
     15377       134  SLPC      C314          -21.5981188460       -8.9536601581       -1.5769563953  MEMB      134             0.0000000000
     15378       134  SLPC      H14X          -20.8270240093       -9.6600654584       -1.2018227671  MEMB      134             0.0000000000
     15379       134  SLPC      H14Y          -22.6121473417       -9.2628271863       -1.2445664337  MEMB      134             0.0000000000
     15380       134  SLPC      C315          -21.3119526400       -7.6577864414       -0.7899804506  MEMB      134             0.0000000000
     15381       134  SLPC      H15X          -21.9513235622       -6.8580007332       -1.2211054493  MEMB      134             0.0000000000
     15382       134  SLPC      H15Y          -20.2592853117       -7.3707213314       -0.9992781964  MEMB      134             0.0000000000
     15383       134  SLPC      C316          -21.5480533766       -7.8008660311        0.6862408901  MEMB      134             0.0000000000
     15384       134  SLPC      H16X          -20.7448726564       -7.1876275533        1.1479342992  MEMB      134             0.0000000000
     15385       134  SLPC      H16Y          -21.4211238951       -8.8604671856        0.9951996908  MEMB      134             0.0000000000
     15386       134  SLPC      C317          -22.9473576784       -7.2918582149        1.1662354300  MEMB      134             0.0000000000
     15387       134  SLPC      H17X          -23.6621664390       -7.7653139074        0.4596885315  MEMB      134             0.0000000000
     15388       134  SLPC      H17Y          -23.0284940591       -6.1870316243        1.0819978645  MEMB      134             0.0000000000
     15389       134  SLPC      C318          -23.3194307714       -7.8708012985        2.5633541859  MEMB      134             0.0000000000
     15390       134  SLPC      H18X          -24.2775748853       -7.4281364164        2.9102400295  MEMB      134             0.0000000000
     15391       134  SLPC      H18Y          -22.4754946471       -7.7501682363        3.2757731390  MEMB      134             0.0000000000
     15392       134  SLPC      H18Z          -23.4072011801       -8.9714957246        2.4405179570  MEMB      134             0.0000000000
     15393       135  OSM       N              23.6534703223       10.7146919651      -23.0545234500  MEMB      135             0.0000000000
     15394       135  OSM       C15            24.6807362785        9.9248994910      -23.7663095020  MEMB      135             0.0000000000
     15395       135  OSM       H15A           25.6096573667        9.9243962116      -23.2153962142  MEMB      135             0.0000000000
     15396       135  OSM       H15B           24.7811313821       10.1854354761      -24.8095938207  MEMB      135             0.0000000000
     15397       135  OSM       H15C           24.2486417503        8.9377927564      -23.8392105170  MEMB      135             0.0000000000
     15398       135  OSM       C14            24.2909654364       11.9414622799      -22.5374471266  MEMB      135             0.0000000000
     15399       135  OSM       H14A           24.4611535995       12.6989139683      -23.2882485450  MEMB      135             0.0000000000
     15400       135  OSM       H14B           25.2324868051       11.7026453567      -22.0653199294  MEMB      135             0.0000000000
     15401       135  OSM       H14C           23.6090307405       12.4510763578      -21.8728731954  MEMB      135             0.0000000000
     15402       135  OSM       C13            22.6227537462       11.0138441952      -24.1040912220  MEMB      135             0.0000000000
     15403       135  OSM       H13A           21.9149112330       11.7640957195      -23.7839637649  MEMB      135             0.0000000000
     15404       135  OSM       H13B           22.0920154103       10.1110781346      -24.3681562544  MEMB      135             0.0000000000
     15405       135  OSM       H13C           23.0555798403       11.3496658557      -25.0348359188  MEMB      135             0.0000000000
     15406       135  OSM       C12            23.1235645366        9.8966208651      -21.8884950303  MEMB      135             0.0000000000
     15407       135  OSM       H12A           23.9887063311        9.4996458837      -21.3782592634  MEMB      135             0.0000000000
     15408       135  OSM       H12B           22.6890240919        9.0285258558      -22.3617660790  MEMB      135             0.0000000000
     15409       135  OSM       C11            22.1841783943       10.6188481720      -20.8456121729  MEMB      135             0.0000000000
     15410       135  OSM       H11A           21.5672557478        9.8413262063      -20.3464258996  MEMB      135             0.0000000000
     15411       135  OSM       H11B           21.5326504357       11.2865439915      -21.4489483424  MEMB      135             0.0000000000
     15412       135  OSM       P              23.9490553854       10.8710308879      -18.9470882018  MEMB      135             0.0000000000
     15413       135  OSM       O13            24.8114935593        9.8808083240      -19.6605887346  MEMB      135             0.0000000000
     15414       135  OSM       O14            24.5822611175       12.0486860142      -18.3517299861  MEMB      135             0.0000000000
     15415       135  OSM       O11            23.1685143577       10.1446453328      -17.8750825936  MEMB      135             0.0000000000
     15416       135  OSM       O12            22.8515635647       11.4473249779      -19.9690319772  MEMB      135             0.0000000000
     15417       135  OSM       C1S            22.0194576991       10.7552414003      -17.2987660801  MEMB      135             0.0000000000
     15418       135  OSM       H1S            21.0613565602       10.4457610760      -17.7684309836  MEMB      135             0.0000000000
     15419       135  OSM       H1T            21.9923213184       11.8601792382      -17.4114473863  MEMB      135             0.0000000000
     15420       135  OSM       NF             22.7221758525       11.5301199227      -15.0525146771  MEMB      135             0.0000000000
     15421       135  OSM       HNF            23.6450414705       11.2466960269      -14.8035187096  MEMB      135             0.0000000000
     15422       135  OSM       C2S            21.9944048211       10.5911825518      -15.7461939724  MEMB      135             0.0000000000
     15423       135  OSM       H2S            21.0100308853       10.7082922272      -15.2445823620  MEMB      135             0.0000000000
     15424       135  OSM       C3S            22.5298626905        9.2468118135      -15.4979412462  MEMB      135             0.0000000000
     15425       135  OSM       H3S            23.6205763746        9.2242763821      -15.7080763780  MEMB      135             0.0000000000
     15426       135  OSM       O3             21.9621454464        8.2335585051      -16.4069155241  MEMB      135             0.0000000000
     15427       135  OSM       HO3            21.0903733376        8.6113494416      -16.5443470072  MEMB      135             0.0000000000
     15428       135  OSM       C4S            22.3738780379        8.8178017882      -14.0502283340  MEMB      135             0.0000000000
     15429       135  OSM       H4S            21.3600777334        8.6265019962      -13.6686352823  MEMB      135             0.0000000000
     15430       135  OSM       C5S            23.3666639572        8.7675067065      -13.0933064917  MEMB      135             0.0000000000
     15431       135  OSM       H5S            24.4263224692        8.8217993137      -13.3834380004  MEMB      135             0.0000000000
     15432       135  OSM       C6S            23.1289713897        8.3072797388      -11.6442416284  MEMB      135             0.0000000000
     15433       135  OSM       H6S            23.5523316103        7.2967322668      -11.4601733511  MEMB      135             0.0000000000
     15434       135  OSM       H6T            22.0416260397        8.2121621843      -11.4369885749  MEMB      135             0.0000000000
     15435       135  OSM       C7S            23.4784009600        9.4697175723      -10.5724730121  MEMB      135             0.0000000000
     15436       135  OSM       H7S            22.8017796294       10.2437243754      -10.9936832768  MEMB      135             0.0000000000
     15437       135  OSM       H7T            24.5625908938        9.6722889582      -10.7059577512  MEMB      135             0.0000000000
     15438       135  OSM       C8S            23.0343815124        9.0836632656       -9.1457477410  MEMB      135             0.0000000000
     15439       135  OSM       H8S            23.9100499653        8.6623405958       -8.6072190879  MEMB      135             0.0000000000
     15440       135  OSM       H8T            22.2683608022        8.2789741265       -9.1428181327  MEMB      135             0.0000000000
     15441       135  OSM       C9S            22.4289900133       10.2507888494       -8.3887697395  MEMB      135             0.0000000000
     15442       135  OSM       H9S            21.7296370253       10.8291757648       -9.0296249041  MEMB      135             0.0000000000
     15443       135  OSM       H9T            23.2674437465       10.9558195317       -8.2037075210  MEMB      135             0.0000000000
     15444       135  OSM       C10S           21.7555759225        9.8858292090       -7.0643909701  MEMB      135             0.0000000000
     15445       135  OSM       H10S           21.0027886727        9.0799624229       -7.1993386582  MEMB      135             0.0000000000
     15446       135  OSM       H10T           21.1165756992       10.7455746656       -6.7697088774  MEMB      135             0.0000000000
     15447       135  OSM       C11S           22.7805994725        9.3691303734       -6.0221920141  MEMB      135             0.0000000000
     15448       135  OSM       H11S           23.5198777864       10.1693501023       -5.8043917538  MEMB      135             0.0000000000
     15449       135  OSM       H11T           23.3447080072        8.5175054844       -6.4590413913  MEMB      135             0.0000000000
     15450       135  OSM       C12S           22.2750169438        8.9134321803       -4.6653306888  MEMB      135             0.0000000000
     15451       135  OSM       H12S           21.2396529387        9.2088692946       -4.3913604040  MEMB      135             0.0000000000
     15452       135  OSM       H12T           22.9952121732        9.2221306512       -3.8777093838  MEMB      135             0.0000000000
     15453       135  OSM       C13S           22.1010130278        7.3892176160       -4.5949478897  MEMB      135             0.0000000000
     15454       135  OSM       H13S           23.1191735057        7.0717159508       -4.9061763103  MEMB      135             0.0000000000
     15455       135  OSM       H13T           21.3690967459        7.0449340193       -5.3565839412  MEMB      135             0.0000000000
     15456       135  OSM       C14S           21.6823670666        6.9598155805       -3.1853990077  MEMB      135             0.0000000000
     15457       135  OSM       H14S           21.4105334329        5.8908870391       -3.3188860262  MEMB      135             0.0000000000
     15458       135  OSM       H14T           20.6777722188        7.3856410073       -2.9761535902  MEMB      135             0.0000000000
     15459       135  OSM       C15S           22.6287322807        7.1275251895       -1.9849811158  MEMB      135             0.0000000000
     15460       135  OSM       H15S           23.2525271038        8.0444775440       -2.0513083561  MEMB      135             0.0000000000
     15461       135  OSM       H15T           23.3058990949        6.2580500189       -2.1256176595  MEMB      135             0.0000000000
     15462       135  OSM       C16S           21.9665903671        6.8620973672       -0.6442741879  MEMB      135             0.0000000000
     15463       135  OSM       H16S           22.7578089595        6.7003804790        0.1187077409  MEMB      135             0.0000000000
     15464       135  OSM       H16T           21.3370849150        5.9514826641       -0.7382150351  MEMB      135             0.0000000000
     15465       135  OSM       C17S           21.0112644840        7.8872662582       -0.1881992661  MEMB      135             0.0000000000
     15466       135  OSM       H17S           20.5166533829        7.5605861587        0.7514601671  MEMB      135             0.0000000000
     15467       135  OSM       H17T           20.2869827285        8.0826040467       -1.0076997750  MEMB      135             0.0000000000
     15468       135  OSM       C18S           21.6672847334        9.3290759753       -0.0011887197  MEMB      135             0.0000000000
     15469       135  OSM       H18S           20.9575532859        9.9460279173        0.5903965959  MEMB      135             0.0000000000
     15470       135  OSM       H18T           21.8627112962        9.8045266233       -0.9861133134  MEMB      135             0.0000000000
     15471       135  OSM       H18U           22.6486538203        9.2718620864        0.5164630821  MEMB      135             0.0000000000
     15472       135  OSM       C1F            22.4437280056       12.7970605431      -14.9380368031  MEMB      135             0.0000000000
     15473       135  OSM       OF             21.3388917425       13.2397219993      -15.3728825947  MEMB      135             0.0000000000
     15474       135  OSM       C2F            23.4341600005       13.6485063786      -14.3387446753  MEMB      135             0.0000000000
     15475       135  OSM       H2F            23.7293772522       14.4362591396      -15.0644256596  MEMB      135             0.0000000000
     15476       135  OSM       H2G            24.3973780864       13.1334656565      -14.1356069240  MEMB      135             0.0000000000
     15477       135  OSM       C3F            22.7988725434       14.3565277247      -13.1508383546  MEMB      135             0.0000000000
     15478       135  OSM       H3F            22.0246755845       15.0691770369      -13.5073086353  MEMB      135             0.0000000000
     15479       135  OSM       H3G            23.5407620759       15.0971110374      -12.7827924596  MEMB      135             0.0000000000
     15480       135  OSM       C4F            22.1623346089       13.4572032939      -12.0532699816  MEMB      135             0.0000000000
     15481       135  OSM       H4F            22.9099651818       12.7666140906      -11.6077867995  MEMB      135             0.0000000000
     15482       135  OSM       H4G            21.3789423750       12.8593042912      -12.5662366063  MEMB      135             0.0000000000
     15483       135  OSM       C5F            21.4022810971       14.2935537921      -11.0212580851  MEMB      135             0.0000000000
     15484       135  OSM       H5F            20.9201455205       13.5027461166      -10.4076703486  MEMB      135             0.0000000000
     15485       135  OSM       H5G            20.5827148815       14.9333939408      -11.4127123389  MEMB      135             0.0000000000
     15486       135  OSM       C6F            22.2444372591       15.2497077408      -10.1852728080  MEMB      135             0.0000000000
     15487       135  OSM       H6F            21.5011228437       15.8708507702       -9.6412266909  MEMB      135             0.0000000000
     15488       135  OSM       H6G            22.8891131660       15.8493743669      -10.8628521291  MEMB      135             0.0000000000
     15489       135  OSM       C7F            23.1017790714       14.6225177614       -9.0798724085  MEMB      135             0.0000000000
     15490       135  OSM       H7F            23.7697924324       13.8586587389       -9.5321982459  MEMB      135             0.0000000000
     15491       135  OSM       H7G            22.4546124493       14.0248543832       -8.4028973447  MEMB      135             0.0000000000
     15492       135  OSM       C8F            23.8897262657       15.7296861174       -8.3444918718  MEMB      135             0.0000000000
     15493       135  OSM       H8F            23.1962858758       16.1609270429       -7.5911703317  MEMB      135             0.0000000000
     15494       135  OSM       H8G            24.1368186540       16.5099391504       -9.0958050607  MEMB      135             0.0000000000
     15495       135  OSM       C9F            25.1025492525       15.3270798750       -7.5535848659  MEMB      135             0.0000000000
     15496       135  OSM       H9F            25.9634625804       15.2375498969       -8.2324158964  MEMB      135             0.0000000000
     15497       135  OSM       C10F           25.2597994587       15.1606279348       -6.1925474369  MEMB      135             0.0000000000
     15498       135  OSM       H10F           26.3050459269       14.9338137817       -5.9356134247  MEMB      135             0.0000000000
     15499       135  OSM       C11F           24.2106116234       15.3583188349       -5.0777790378  MEMB      135             0.0000000000
     15500       135  OSM       H11F           23.3962178044       16.0011685524       -5.4750536476  MEMB      135             0.0000000000
     15501       135  OSM       H11G           24.6902270144       15.9008943001       -4.2352209467  MEMB      135             0.0000000000
     15502       135  OSM       C12F           23.6446263908       14.0704580914       -4.5465387437  MEMB      135             0.0000000000
     15503       135  OSM       H12F           24.4897263057       13.3610650828       -4.4165829949  MEMB      135             0.0000000000
     15504       135  OSM       H12G           23.0338560928       13.5816033018       -5.3354005049  MEMB      135             0.0000000000
     15505       135  OSM       C13F           22.9697973735       14.2582425377       -3.1810964347  MEMB      135             0.0000000000
     15506       135  OSM       H13F           22.2464985171       13.4366079682       -2.9911591445  MEMB      135             0.0000000000
     15507       135  OSM       H13G           22.4316285792       15.2244091103       -3.2870086892  MEMB      135             0.0000000000
     15508       135  OSM       C14F           23.9642770664       14.1772337880       -2.0256749731  MEMB      135             0.0000000000
     15509       135  OSM       H14F           23.3989944234       14.4699636657       -1.1151332587  MEMB      135             0.0000000000
     15510       135  OSM       H14G           24.8119989614       14.8786413280       -2.1796745898  MEMB      135             0.0000000000
     15511       135  OSM       C15F           24.5848859411       12.7874957836       -1.8025854161  MEMB      135             0.0000000000
     15512       135  OSM       H15F           25.2908509207       12.6153823444       -2.6430088405  MEMB      135             0.0000000000
     15513       135  OSM       H15G           23.8267528493       11.9816729780       -1.9036033731  MEMB      135             0.0000000000
     15514       135  OSM       C16F           25.2567886645       12.5395583981       -0.4984764841  MEMB      135             0.0000000000
     15515       135  OSM       H16F           25.2995000559       11.4400352717       -0.3450313965  MEMB      135             0.0000000000
     15516       135  OSM       H16G           24.5969205024       13.0352804390        0.2452658840  MEMB      135             0.0000000000
     15517       135  OSM       C17F           26.6233303273       13.1830617435       -0.5539945930  MEMB      135             0.0000000000
     15518       135  OSM       H17F           26.7637905980       13.3136140768        0.5403306005  MEMB      135             0.0000000000
     15519       135  OSM       H17G           26.7186613481       14.1688473585       -1.0574438416  MEMB      135             0.0000000000
     15520       135  OSM       C18F           27.8546025761       12.2775752405       -1.0643751665  MEMB      135             0.0000000000
     15521       135  OSM       H18F           28.7703603327       12.8949831516       -1.1848582680  MEMB      135             0.0000000000
     15522       135  OSM       H18G           27.3778373906       11.9032106611       -1.9954314231  MEMB      135             0.0000000000
     15523       135  OSM       H18H           28.1318928208       11.4539545869       -0.3722172458  MEMB      135             0.0000000000
     15524       136  SAPC      N              -3.0596727212       24.3025861205      -21.4991641627  MEMB      136             0.0000000000
     15525       136  SAPC      C12            -2.1451707172       25.4385970349      -21.0895935536  MEMB      136             0.0000000000
     15526       136  SAPC      H12A           -2.6395939417       26.3504414570      -21.3904014152  MEMB      136             0.0000000000
     15527       136  SAPC      H12B           -1.3164705927       25.5043015991      -21.7790418720  MEMB      136             0.0000000000
     15528       136  SAPC      C13            -3.4275617529       24.3414625966      -22.9341180076  MEMB      136             0.0000000000
     15529       136  SAPC      H13A           -3.9002268025       23.3910376193      -23.1333176578  MEMB      136             0.0000000000
     15530       136  SAPC      H13B           -4.0329578461       25.2019340085      -23.1780127948  MEMB      136             0.0000000000
     15531       136  SAPC      H13C           -2.5417778503       24.4152668856      -23.5475834189  MEMB      136             0.0000000000
     15532       136  SAPC      C14            -2.4636670918       23.0230707629      -21.1253776476  MEMB      136             0.0000000000
     15533       136  SAPC      H14A           -1.5407070719       22.8270679516      -21.6508561014  MEMB      136             0.0000000000
     15534       136  SAPC      H14B           -2.2861158219       22.9237771585      -20.0647098203  MEMB      136             0.0000000000
     15535       136  SAPC      H14C           -3.1909900420       22.2621320929      -21.3669839163  MEMB      136             0.0000000000
     15536       136  SAPC      C15            -4.4101452088       24.5501038853      -20.8028456438  MEMB      136             0.0000000000
     15537       136  SAPC      H15A           -4.6822252571       25.5703192394      -21.0298545765  MEMB      136             0.0000000000
     15538       136  SAPC      H15B           -4.9933364071       23.7788160726      -21.2838893601  MEMB      136             0.0000000000
     15539       136  SAPC      H15C           -4.3983161363       24.2742607634      -19.7587332374  MEMB      136             0.0000000000
     15540       136  SAPC      C11            -1.8406914617       25.6539761297      -19.5711928393  MEMB      136             0.0000000000
     15541       136  SAPC      H11A           -1.1145027993       26.4947051630      -19.5591186776  MEMB      136             0.0000000000
     15542       136  SAPC      H11B           -1.3469508137       24.7465878344      -19.1623072261  MEMB      136             0.0000000000
     15543       136  SAPC      P              -3.4638370227       27.4991818459      -18.6106837986  MEMB      136             0.0000000000
     15544       136  SAPC      O13            -3.7719056246       28.0410061777      -19.9630492301  MEMB      136             0.0000000000
     15545       136  SAPC      O14            -4.5503283476       27.5220293140      -17.6116377639  MEMB      136             0.0000000000
     15546       136  SAPC      O12            -3.0310997567       25.9548035348      -18.8279663257  MEMB      136             0.0000000000
     15547       136  SAPC      O11            -2.1450705589       28.2076756773      -17.9643710433  MEMB      136             0.0000000000
     15548       136  SAPC      C1             -1.6482847334       29.4005805785      -18.5888809600  MEMB      136             0.0000000000
     15549       136  SAPC      HA             -1.1605100195       29.1984086607      -19.5663896985  MEMB      136             0.0000000000
     15550       136  SAPC      HB             -2.4760864973       30.0986295480      -18.8374630942  MEMB      136             0.0000000000
     15551       136  SAPC      C2             -0.6210139943       30.0290490951      -17.6166287398  MEMB      136             0.0000000000
     15552       136  SAPC      HS              0.0735834184       30.5639272501      -18.2990949392  MEMB      136             0.0000000000
     15553       136  SAPC      O21             0.0309586559       29.1708024278      -16.7807730629  MEMB      136             0.0000000000
     15554       136  SAPC      C21             0.8492334922       28.2392283178      -17.3379828590  MEMB      136             0.0000000000
     15555       136  SAPC      O22             1.0798393582       28.1684133508      -18.4698741382  MEMB      136             0.0000000000
     15556       136  SAPC      C22             1.2907661513       27.2123424243      -16.2344745168  MEMB      136             0.0000000000
     15557       136  SAPC      H2R             1.8875635061       27.7227014904      -15.4485435779  MEMB      136             0.0000000000
     15558       136  SAPC      H2S             0.4032226137       26.6358454066      -15.8964828147  MEMB      136             0.0000000000
     15559       136  SAPC      C3             -1.3623766716       31.0120011334      -16.6626537608  MEMB      136             0.0000000000
     15560       136  SAPC      HX             -1.8648427798       31.6912330390      -17.3841057408  MEMB      136             0.0000000000
     15561       136  SAPC      HY             -0.6992030132       31.4390668079      -15.8802622686  MEMB      136             0.0000000000
     15562       136  SAPC      O31            -2.4552706979       30.3865959529      -16.0392890239  MEMB      136             0.0000000000
     15563       136  SAPC      C31            -2.5313430177       30.3510794977      -14.7069387303  MEMB      136             0.0000000000
     15564       136  SAPC      O32            -1.7748819593       30.9020353214      -13.9126662313  MEMB      136             0.0000000000
     15565       136  SAPC      C32            -3.8209547754       29.8314996571      -14.3509157845  MEMB      136             0.0000000000
     15566       136  SAPC      H2X            -3.9122821657       28.7832206399      -14.7074143726  MEMB      136             0.0000000000
     15567       136  SAPC      H2Y            -4.6424317423       30.3341774062      -14.9048216643  MEMB      136             0.0000000000
     15568       136  SAPC      C23             2.2797164196       26.1344896881      -16.7896269406  MEMB      136             0.0000000000
     15569       136  SAPC      H3R             3.2423901083       26.6303249513      -17.0380768737  MEMB      136             0.0000000000
     15570       136  SAPC      H3S             1.8669741696       25.6878961948      -17.7194221333  MEMB      136             0.0000000000
     15571       136  SAPC      C24             2.8056945802       25.1666301450      -15.7119670592  MEMB      136             0.0000000000
     15572       136  SAPC      H4R             3.3110451774       25.7216215028      -14.8928660378  MEMB      136             0.0000000000
     15573       136  SAPC      H4S             3.6686966727       24.5376653640      -16.0184826096  MEMB      136             0.0000000000
     15574       136  SAPC      C25             1.7648190071       24.2852135032      -15.0895692858  MEMB      136             0.0000000000
     15575       136  SAPC      H5R             1.2901486191       23.5018860142      -15.6987374541  MEMB      136             0.0000000000
     15576       136  SAPC      C26             1.3281018567       24.2664984884      -13.8270489988  MEMB      136             0.0000000000
     15577       136  SAPC      H6R             0.5358503762       23.5328773303      -13.6169591038  MEMB      136             0.0000000000
     15578       136  SAPC      C27             1.8183824090       25.1781656970      -12.7482621924  MEMB      136             0.0000000000
     15579       136  SAPC      H7R             2.8984996416       25.4363005728      -12.7161048982  MEMB      136             0.0000000000
     15580       136  SAPC      H7S             1.6665013281       24.6226921504      -11.7981553718  MEMB      136             0.0000000000
     15581       136  SAPC      C28             0.9852105752       26.4886242178      -12.6624442741  MEMB      136             0.0000000000
     15582       136  SAPC      H8R             1.4321017625       27.4337214560      -13.0046130617  MEMB      136             0.0000000000
     15583       136  SAPC      C29            -0.2813764022       26.6504071765      -12.1714204146  MEMB      136             0.0000000000
     15584       136  SAPC      H9R            -0.6393863880       27.6903534775      -12.1529643500  MEMB      136             0.0000000000
     15585       136  SAPC      C210           -1.1976645334       25.6063554358      -11.5945891895  MEMB      136             0.0000000000
     15586       136  SAPC      H10R           -1.6438028837       25.0393418205      -12.4394424338  MEMB      136             0.0000000000
     15587       136  SAPC      H10S           -2.1231548701       26.1256025221      -11.2656955311  MEMB      136             0.0000000000
     15588       136  SAPC      C211           -0.6815083157       24.7378056564      -10.4331645836  MEMB      136             0.0000000000
     15589       136  SAPC      H11R            0.1621579724       24.0634046890      -10.6415159203  MEMB      136             0.0000000000
     15590       136  SAPC      C212           -1.2484785414       24.7350873429       -9.2308849792  MEMB      136             0.0000000000
     15591       136  SAPC      H12R           -0.6464130891       24.3146219266       -8.4119063746  MEMB      136             0.0000000000
     15592       136  SAPC      C213           -2.3843615866       25.5704529266       -8.6764690138  MEMB      136             0.0000000000
     15593       136  SAPC      H13R           -2.9904599986       25.9741749003       -9.5155009854  MEMB      136             0.0000000000
     15594       136  SAPC      H13S           -2.0738171110       26.4331858328       -8.0491133165  MEMB      136             0.0000000000
     15595       136  SAPC      C214           -3.3857716004       24.6617630331       -7.9989044290  MEMB      136             0.0000000000
     15596       136  SAPC      H14R           -4.3913132888       24.6580884881       -8.4448564143  MEMB      136             0.0000000000
     15597       136  SAPC      C215           -3.2560840470       23.9986191542       -6.8927657695  MEMB      136             0.0000000000
     15598       136  SAPC      H15R           -4.1130342722       23.3655064179       -6.6192607092  MEMB      136             0.0000000000
     15599       136  SAPC      C216           -2.0076603241       23.9104343682       -5.9346687529  MEMB      136             0.0000000000
     15600       136  SAPC      H16R           -1.1062036280       23.7569115444       -6.5656417151  MEMB      136             0.0000000000
     15601       136  SAPC      H16S           -2.0973570418       22.9299523941       -5.4199544585  MEMB      136             0.0000000000
     15602       136  SAPC      C217           -1.9285691114       25.1347302991       -5.0640929521  MEMB      136             0.0000000000
     15603       136  SAPC      H17R           -1.7440517710       26.0230629779       -5.7052944988  MEMB      136             0.0000000000
     15604       136  SAPC      H17S           -1.0065123996       25.0441761308       -4.4509594415  MEMB      136             0.0000000000
     15605       136  SAPC      C218           -3.1279381163       25.3575676898       -4.1325305021  MEMB      136             0.0000000000
     15606       136  SAPC      H18R           -3.3337853229       24.4523926331       -3.5221154195  MEMB      136             0.0000000000
     15607       136  SAPC      H18S           -4.0259560494       25.5521346227       -4.7570527286  MEMB      136             0.0000000000
     15608       136  SAPC      C219           -3.0176944064       26.4637601608       -3.0492747075  MEMB      136             0.0000000000
     15609       136  SAPC      H19R           -3.9836403752       26.5822735543       -2.5133417934  MEMB      136             0.0000000000
     15610       136  SAPC      H19S           -2.8552315689       27.3598401771       -3.6856448727  MEMB      136             0.0000000000
     15611       136  SAPC      C220           -1.9986065925       26.4130937351       -1.9263279872  MEMB      136             0.0000000000
     15612       136  SAPC      H20R           -0.9772257356       26.1856861272       -2.2996741539  MEMB      136             0.0000000000
     15613       136  SAPC      H20S           -2.1973273917       25.6451869224       -1.1484140080  MEMB      136             0.0000000000
     15614       136  SAPC      H20T           -1.8559104525       27.4368793352       -1.5191162481  MEMB      136             0.0000000000
     15615       136  SAPC      C33            -4.0602480313       29.6609539618      -12.8511284548  MEMB      136             0.0000000000
     15616       136  SAPC      H3X            -3.9377318282       30.6033260203      -12.2755894718  MEMB      136             0.0000000000
     15617       136  SAPC      H3Y            -3.3641069206       28.9002445601      -12.4375711066  MEMB      136             0.0000000000
     15618       136  SAPC      C34            -5.5039535749       29.1475847157      -12.4700690218  MEMB      136             0.0000000000
     15619       136  SAPC      H4X            -5.4548507578       28.0389389378      -12.5231197286  MEMB      136             0.0000000000
     15620       136  SAPC      H4Y            -6.2603022112       29.5573914512      -13.1731448590  MEMB      136             0.0000000000
     15621       136  SAPC      C35            -5.9461723684       29.2919131546      -11.0550614318  MEMB      136             0.0000000000
     15622       136  SAPC      H5X            -7.0294017150       29.0507810607      -11.0022375933  MEMB      136             0.0000000000
     15623       136  SAPC      H5Y            -5.8531301958       30.3634038631      -10.7765443915  MEMB      136             0.0000000000
     15624       136  SAPC      C36            -5.1178132619       28.4251451779      -10.1294241977  MEMB      136             0.0000000000
     15625       136  SAPC      H6X            -4.0205091386       28.4145494992      -10.3030111918  MEMB      136             0.0000000000
     15626       136  SAPC      H6Y            -5.4063742148       27.3920532681      -10.4188630337  MEMB      136             0.0000000000
     15627       136  SAPC      C37            -5.4106524646       28.6629375212       -8.6054282838  MEMB      136             0.0000000000
     15628       136  SAPC      H7X            -5.1920881861       27.7186140475       -8.0624702339  MEMB      136             0.0000000000
     15629       136  SAPC      H7Y            -6.4678301147       28.8802749468       -8.3418744058  MEMB      136             0.0000000000
     15630       136  SAPC      C38            -4.5549691691       29.7673777153       -8.0314927838  MEMB      136             0.0000000000
     15631       136  SAPC      H8X            -4.9768738871       29.9853792339       -7.0271059809  MEMB      136             0.0000000000
     15632       136  SAPC      H8Y            -4.5283002449       30.6426799339       -8.7151994360  MEMB      136             0.0000000000
     15633       136  SAPC      C39            -3.0221860019       29.4390747818       -7.8400709404  MEMB      136             0.0000000000
     15634       136  SAPC      H9X            -2.3904440972       29.4425889995       -8.7539691984  MEMB      136             0.0000000000
     15635       136  SAPC      H9Y            -2.9913689474       28.4442143163       -7.3464877411  MEMB      136             0.0000000000
     15636       136  SAPC      C310           -2.4237090343       30.5494846904       -6.8605147664  MEMB      136             0.0000000000
     15637       136  SAPC      H10X           -3.0007421018       30.6396332089       -5.9154078982  MEMB      136             0.0000000000
     15638       136  SAPC      H10Y           -2.6191840910       31.4883735180       -7.4214052194  MEMB      136             0.0000000000
     15639       136  SAPC      C311           -0.9425989498       30.4343830975       -6.7318603505  MEMB      136             0.0000000000
     15640       136  SAPC      H11X           -0.7264574349       31.1851755843       -5.9419783039  MEMB      136             0.0000000000
     15641       136  SAPC      H11Y           -0.3224955317       30.8545447135       -7.5523828589  MEMB      136             0.0000000000
     15642       136  SAPC      C312           -0.3594314521       29.0785737487       -6.3611208437  MEMB      136             0.0000000000
     15643       136  SAPC      H12X            0.7485835888       29.1532975285       -6.3933662827  MEMB      136             0.0000000000
     15644       136  SAPC      H12Y           -0.6612695948       28.1902018819       -6.9561086855  MEMB      136             0.0000000000
     15645       136  SAPC      C313           -0.7953526503       28.6844983716       -4.9066027511  MEMB      136             0.0000000000
     15646       136  SAPC      H13X           -0.6079638963       27.6286477429       -4.6161099746  MEMB      136             0.0000000000
     15647       136  SAPC      H13Y           -1.8976623585       28.7513438283       -5.0281159999  MEMB      136             0.0000000000
     15648       136  SAPC      C314           -0.3341168473       29.6702458548       -3.7957535157  MEMB      136             0.0000000000
     15649       136  SAPC      H14X            0.1613068171       30.5488470707       -4.2615173429  MEMB      136             0.0000000000
     15650       136  SAPC      H14Y            0.4920616121       29.2396084045       -3.1905237106  MEMB      136             0.0000000000
     15651       136  SAPC      C315           -1.4030982666       30.1829010717       -2.7781096670  MEMB      136             0.0000000000
     15652       136  SAPC      H15X           -2.0118792613       29.3182691897       -2.4373475567  MEMB      136             0.0000000000
     15653       136  SAPC      H15Y           -1.9640357770       31.0329289173       -3.2220944449  MEMB      136             0.0000000000
     15654       136  SAPC      C316           -0.7269026646       30.7438970534       -1.4738000139  MEMB      136             0.0000000000
     15655       136  SAPC      H16X            0.3130853668       31.0714828004       -1.6869512839  MEMB      136             0.0000000000
     15656       136  SAPC      H16Y           -0.5569872269       29.8857735054       -0.7889106731  MEMB      136             0.0000000000
     15657       136  SAPC      C317           -1.4033601814       31.9059327391       -0.6234389891  MEMB      136             0.0000000000
     15658       136  SAPC      H17X           -2.4565529159       31.5751491737       -0.4981884653  MEMB      136             0.0000000000
     15659       136  SAPC      H17Y           -1.5102029121       32.8227391931       -1.2418001662  MEMB      136             0.0000000000
     15660       136  SAPC      C318           -0.7664541563       32.0601919209        0.7691624251  MEMB      136             0.0000000000
     15661       136  SAPC      H18X            0.3203302749       32.2855920969        0.7200214512  MEMB      136             0.0000000000
     15662       136  SAPC      H18Y           -0.9010536558       31.2076639664        1.4687329027  MEMB      136             0.0000000000
     15663       136  SAPC      H18Z           -1.2884234626       32.8872395981        1.2962876662  MEMB      136             0.0000000000
     15664       137  SAPS      N             -20.6703922330       13.4185044727      -20.6476270162  MEMB      137             0.0000000000
     15665       137  SAPS      HN1           -20.3014208233       12.6636239506      -21.2605018009  MEMB      137             0.0000000000
     15666       137  SAPS      HN2           -20.1956056627       14.3383225537      -20.7481861574  MEMB      137             0.0000000000
     15667       137  SAPS      HN3           -20.6941631418       13.0570017983      -19.6727676732  MEMB      137             0.0000000000
     15668       137  SAPS      C12           -22.1320048829       13.5191363314      -20.9684621722  MEMB      137             0.0000000000
     15669       137  SAPS      H12A          -22.5783090334       14.4758099738      -20.7404533902  MEMB      137             0.0000000000
     15670       137  SAPS      C13           -22.3261519267       13.5239731203      -22.5215344217  MEMB      137             0.0000000000
     15671       137  SAPS      O13A          -21.2839472585       13.4809834771      -23.2382048761  MEMB      137             0.0000000000
     15672       137  SAPS      O13B          -23.4715807574       13.4382788574      -22.9584286785  MEMB      137             0.0000000000
     15673       137  SAPS      C11           -23.0444863150       12.3886877800      -20.2161221765  MEMB      137             0.0000000000
     15674       137  SAPS      H11A          -22.8924366201       11.3308362784      -20.5196879236  MEMB      137             0.0000000000
     15675       137  SAPS      H11B          -24.0589339372       12.7066817868      -20.5387623952  MEMB      137             0.0000000000
     15676       137  SAPS      P             -23.8272038588       11.7836365641      -17.7906215862  MEMB      137             0.0000000000
     15677       137  SAPS      O13           -23.8237450295       10.3443314505      -18.1182934622  MEMB      137             0.0000000000
     15678       137  SAPS      O14           -23.3967689537       12.2132731441      -16.4256756167  MEMB      137             0.0000000000
     15679       137  SAPS      O12           -22.8010784261       12.5020700345      -18.8245551850  MEMB      137             0.0000000000
     15680       137  SAPS      O11           -25.1784224199       12.4590555974      -18.2904747720  MEMB      137             0.0000000000
     15681       137  SAPS      C1            -26.3551808563       11.9798618763      -17.7466866785  MEMB      137             0.0000000000
     15682       137  SAPS      HA            -26.9395888881       11.4235052673      -18.5103986597  MEMB      137             0.0000000000
     15683       137  SAPS      HB            -26.2817658784       11.2042671816      -16.9546108872  MEMB      137             0.0000000000
     15684       137  SAPS      C2            -27.0694336049       13.2416602036      -17.1932313735  MEMB      137             0.0000000000
     15685       137  SAPS      HS            -27.4583154766       13.6344431941      -18.1569810021  MEMB      137             0.0000000000
     15686       137  SAPS      O21           -26.0822021967       14.0438104959      -16.4382841503  MEMB      137             0.0000000000
     15687       137  SAPS      C21           -26.2904320276       15.3469296289      -16.3423159833  MEMB      137             0.0000000000
     15688       137  SAPS      O22           -27.1152616021       15.8771551550      -17.0251482096  MEMB      137             0.0000000000
     15689       137  SAPS      C22           -25.3531425043       16.0763976146      -15.3737499674  MEMB      137             0.0000000000
     15690       137  SAPS      H2R           -24.3359000053       15.9616139920      -15.8054480254  MEMB      137             0.0000000000
     15691       137  SAPS      H2S           -25.4879413125       17.1746589470      -15.4736109473  MEMB      137             0.0000000000
     15692       137  SAPS      C3            -28.2194899199       12.8695659004      -16.2589902857  MEMB      137             0.0000000000
     15693       137  SAPS      HX            -28.5842900745       11.9323782957      -16.7311360015  MEMB      137             0.0000000000
     15694       137  SAPS      HY            -29.0641093653       13.5908356323      -16.2856212463  MEMB      137             0.0000000000
     15695       137  SAPS      O31           -27.7381815774       12.7799250112      -14.8741263366  MEMB      137             0.0000000000
     15696       137  SAPS      C31           -27.5674315045       11.7021799452      -14.1764532372  MEMB      137             0.0000000000
     15697       137  SAPS      O32           -27.9826510465       10.5864494455      -14.4062372339  MEMB      137             0.0000000000
     15698       137  SAPS      C32           -26.8372056331       12.0981604353      -12.9395558783  MEMB      137             0.0000000000
     15699       137  SAPS      H2X           -27.6062733710       12.4150884753      -12.2030694947  MEMB      137             0.0000000000
     15700       137  SAPS      H2Y           -26.1507769104       12.9133142842      -13.2536595586  MEMB      137             0.0000000000
     15701       137  SAPS      C23           -25.2319234822       15.5633171849      -13.9773669355  MEMB      137             0.0000000000
     15702       137  SAPS      H3R           -24.5959262501       14.6529873253      -14.0109563264  MEMB      137             0.0000000000
     15703       137  SAPS      H3S           -26.2480414008       15.3918204682      -13.5621391285  MEMB      137             0.0000000000
     15704       137  SAPS      C24           -24.4948509772       16.5423712164      -13.0039096191  MEMB      137             0.0000000000
     15705       137  SAPS      H4R           -24.4357686543       15.9608698099      -12.0590892063  MEMB      137             0.0000000000
     15706       137  SAPS      H4S           -25.1656607261       17.4227916893      -12.9080190069  MEMB      137             0.0000000000
     15707       137  SAPS      C25           -23.1225580896       17.0077128809      -13.3482527389  MEMB      137             0.0000000000
     15708       137  SAPS      H5R           -23.1413376257       17.9152985284      -13.9694898264  MEMB      137             0.0000000000
     15709       137  SAPS      C26           -21.9423329488       16.5502956451      -12.9607234324  MEMB      137             0.0000000000
     15710       137  SAPS      H6R           -21.0725412651       17.1714643515      -13.2207466117  MEMB      137             0.0000000000
     15711       137  SAPS      C27           -21.6900730261       15.3705443494      -12.1061077837  MEMB      137             0.0000000000
     15712       137  SAPS      H7R           -20.9699846146       14.7089450140      -12.6334410752  MEMB      137             0.0000000000
     15713       137  SAPS      H7S           -22.5999099610       14.7380584754      -12.0256129481  MEMB      137             0.0000000000
     15714       137  SAPS      C28           -21.1096850587       15.7829324742      -10.7685237550  MEMB      137             0.0000000000
     15715       137  SAPS      H8R           -20.0203417823       15.6695012336      -10.8708192985  MEMB      137             0.0000000000
     15716       137  SAPS      C29           -21.7350207505       16.2270730554       -9.6297840492  MEMB      137             0.0000000000
     15717       137  SAPS      H9R           -21.0593882421       15.9958777751       -8.7930822268  MEMB      137             0.0000000000
     15718       137  SAPS      C210          -23.2037030960       16.3966557856       -9.3190290155  MEMB      137             0.0000000000
     15719       137  SAPS      H10R          -23.7478216334       16.8377546971      -10.1814025374  MEMB      137             0.0000000000
     15720       137  SAPS      H10S          -23.4123634063       17.0295445727       -8.4300782836  MEMB      137             0.0000000000
     15721       137  SAPS      C211          -23.8845891188       15.0898886022       -9.1302897791  MEMB      137             0.0000000000
     15722       137  SAPS      H11R          -23.8356525572       14.3700705579       -9.9606320954  MEMB      137             0.0000000000
     15723       137  SAPS      C212          -24.7501530377       14.5853512921       -8.1932762876  MEMB      137             0.0000000000
     15724       137  SAPS      H12R          -25.1458271789       13.5724295309       -8.3588995175  MEMB      137             0.0000000000
     15725       137  SAPS      C213          -25.2642458427       15.4147484492       -6.9919330679  MEMB      137             0.0000000000
     15726       137  SAPS      H13R          -25.5274511316       16.4109231117       -7.4074808742  MEMB      137             0.0000000000
     15727       137  SAPS      H13S          -24.5128164314       15.6084124166       -6.1968423688  MEMB      137             0.0000000000
     15728       137  SAPS      C214          -26.5206649886       14.7393445140       -6.4214504408  MEMB      137             0.0000000000
     15729       137  SAPS      H14R          -27.3168116905       14.7036539651       -7.1796570585  MEMB      137             0.0000000000
     15730       137  SAPS      C215          -26.6690049613       14.2990592531       -5.1565933699  MEMB      137             0.0000000000
     15731       137  SAPS      H15R          -27.6553106764       14.0459476791       -4.7404981106  MEMB      137             0.0000000000
     15732       137  SAPS      C216          -25.6251276406       14.3055044814       -4.1233354128  MEMB      137             0.0000000000
     15733       137  SAPS      H16R          -25.2222335640       15.3255782640       -3.9460024402  MEMB      137             0.0000000000
     15734       137  SAPS      H16S          -24.7307607226       13.7237294869       -4.4331209887  MEMB      137             0.0000000000
     15735       137  SAPS      C217          -26.1927509659       13.7806411703       -2.7861065662  MEMB      137             0.0000000000
     15736       137  SAPS      H17R          -25.3948634963       13.5199187441       -2.0582875322  MEMB      137             0.0000000000
     15737       137  SAPS      H17S          -26.8226304275       12.8830006987       -2.9644729590  MEMB      137             0.0000000000
     15738       137  SAPS      C218          -27.0760843261       14.8275204141       -2.0622700768  MEMB      137             0.0000000000
     15739       137  SAPS      H18R          -27.6116332251       14.2667465873       -1.2666310064  MEMB      137             0.0000000000
     15740       137  SAPS      H18S          -27.7519233395       15.3077605682       -2.8018185833  MEMB      137             0.0000000000
     15741       137  SAPS      C219          -26.2993528643       15.8549230096       -1.2470180734  MEMB      137             0.0000000000
     15742       137  SAPS      H19R          -25.6573095074       16.4222007275       -1.9543360304  MEMB      137             0.0000000000
     15743       137  SAPS      H19S          -25.5958642800       15.4212028626       -0.5045154712  MEMB      137             0.0000000000
     15744       137  SAPS      C220          -27.3324091675       16.6949853632       -0.4954397125  MEMB      137             0.0000000000
     15745       137  SAPS      H20R          -27.7685956311       17.4427683720       -1.1917749671  MEMB      137             0.0000000000
     15746       137  SAPS      H20S          -26.7735371909       17.2120164195        0.3136731784  MEMB      137             0.0000000000
     15747       137  SAPS      H20T          -28.1565158636       16.0634230095       -0.1000935161  MEMB      137             0.0000000000
     15748       137  SAPS      C33           -25.9472575769       10.9595370880      -12.4046718279  MEMB      137             0.0000000000
     15749       137  SAPS      H3X           -25.4466563520       10.3734456216      -13.2048067353  MEMB      137             0.0000000000
     15750       137  SAPS      H3Y           -26.5049669395       10.1792529837      -11.8439242605  MEMB      137             0.0000000000
     15751       137  SAPS      C34           -24.8652501133       11.5832127673      -11.4620371559  MEMB      137             0.0000000000
     15752       137  SAPS      H4X           -25.4224038166       11.8969464670      -10.5534830507  MEMB      137             0.0000000000
     15753       137  SAPS      H4Y           -24.2556030991       12.4352457892      -11.8317552647  MEMB      137             0.0000000000
     15754       137  SAPS      C35           -23.8424035097       10.5661917980      -11.1187523062  MEMB      137             0.0000000000
     15755       137  SAPS      H5X           -23.0664594528       10.3953899824      -11.8953209677  MEMB      137             0.0000000000
     15756       137  SAPS      H5Y           -24.4543216846        9.6427215587      -11.0346099810  MEMB      137             0.0000000000
     15757       137  SAPS      C36           -23.0902131900       10.7237822033       -9.7471593918  MEMB      137             0.0000000000
     15758       137  SAPS      H6X           -23.6366063741       11.3737601220       -9.0307070084  MEMB      137             0.0000000000
     15759       137  SAPS      H6Y           -22.1436882084       11.2923435768       -9.8702429267  MEMB      137             0.0000000000
     15760       137  SAPS      C37           -22.6945105814        9.3766607986       -8.9453918035  MEMB      137             0.0000000000
     15761       137  SAPS      H7X           -22.1608072050        8.7567368631       -9.6971730666  MEMB      137             0.0000000000
     15762       137  SAPS      H7Y           -23.6797904044        8.9205602724       -8.7097718618  MEMB      137             0.0000000000
     15763       137  SAPS      C38           -21.7666857318        9.6623328500       -7.6618829431  MEMB      137             0.0000000000
     15764       137  SAPS      H8X           -21.5482635842        8.6458464538       -7.2702603032  MEMB      137             0.0000000000
     15765       137  SAPS      H8Y           -22.3177166383       10.2098329320       -6.8675714535  MEMB      137             0.0000000000
     15766       137  SAPS      C39           -20.3774770323       10.2931581295       -8.0140314380  MEMB      137             0.0000000000
     15767       137  SAPS      H9X           -20.1326335616       10.3965801140       -9.0927706793  MEMB      137             0.0000000000
     15768       137  SAPS      H9Y           -19.6924850823        9.6479626473       -7.4234136001  MEMB      137             0.0000000000
     15769       137  SAPS      C310          -20.2347066830       11.6051187537       -7.2328571028  MEMB      137             0.0000000000
     15770       137  SAPS      H10X          -19.1743567755       11.9270468648       -7.3124853882  MEMB      137             0.0000000000
     15771       137  SAPS      H10Y          -20.3230079143       11.3760384900       -6.1493230116  MEMB      137             0.0000000000
     15772       137  SAPS      C311          -21.0532184859       12.7608292187       -7.7179217258  MEMB      137             0.0000000000
     15773       137  SAPS      H11X          -22.1207161496       12.4746967953       -7.8314923438  MEMB      137             0.0000000000
     15774       137  SAPS      H11Y          -20.8108875829       13.1701902845       -8.7219232869  MEMB      137             0.0000000000
     15775       137  SAPS      C312          -21.0907199338       13.9047314017       -6.6388492383  MEMB      137             0.0000000000
     15776       137  SAPS      H12X          -21.4845680908       14.8439650687       -7.0827464436  MEMB      137             0.0000000000
     15777       137  SAPS      H12Y          -20.0416904225       14.1338958003       -6.3536453398  MEMB      137             0.0000000000
     15778       137  SAPS      C313          -21.9584681266       13.5006703437       -5.3715249189  MEMB      137             0.0000000000
     15779       137  SAPS      H13X          -21.3038855168       12.7996203121       -4.8108364942  MEMB      137             0.0000000000
     15780       137  SAPS      H13Y          -22.9402988870       13.0401851556       -5.6129438935  MEMB      137             0.0000000000
     15781       137  SAPS      C314          -22.1297492632       14.6587736780       -4.4573874641  MEMB      137             0.0000000000
     15782       137  SAPS      H14X          -23.0119291929       15.2319640911       -4.8145045207  MEMB      137             0.0000000000
     15783       137  SAPS      H14Y          -21.2647362768       15.3032666940       -4.7232864481  MEMB      137             0.0000000000
     15784       137  SAPS      C315          -22.1382561470       14.4245827404       -2.9556446316  MEMB      137             0.0000000000
     15785       137  SAPS      H15X          -21.2092256413       13.8566824113       -2.7349348831  MEMB      137             0.0000000000
     15786       137  SAPS      H15Y          -22.9719513454       13.7266307969       -2.7273106307  MEMB      137             0.0000000000
     15787       137  SAPS      C316          -22.3225892474       15.8173869163       -2.2235235535  MEMB      137             0.0000000000
     15788       137  SAPS      H16X          -23.4023398555       16.0739734440       -2.1723104311  MEMB      137             0.0000000000
     15789       137  SAPS      H16Y          -21.8805854501       16.6727375865       -2.7778958650  MEMB      137             0.0000000000
     15790       137  SAPS      C317          -21.7876584823       15.8777653409       -0.7495379676  MEMB      137             0.0000000000
     15791       137  SAPS      H17X          -21.6721507130       14.8161604288       -0.4429862071  MEMB      137             0.0000000000
     15792       137  SAPS      H17Y          -22.6536589096       16.2553752514       -0.1649226913  MEMB      137             0.0000000000
     15793       137  SAPS      C318          -20.4320429281       16.6637272579       -0.5959310359  MEMB      137             0.0000000000
     15794       137  SAPS      H18X          -19.9493245287       16.6479502807        0.4045965895  MEMB      137             0.0000000000
     15795       137  SAPS      H18Y          -20.6042458417       17.7254037735       -0.8743374619  MEMB      137             0.0000000000
     15796       137  SAPS      H18Z          -19.7385693257       16.3015409521       -1.3847512136  MEMB      137             0.0000000000
     15797       138  CHL1      C3             22.7102966249      -13.0060768969      -17.3251400000  MEMB      138             0.0000000000
     15798       138  CHL1      H3             21.6563127714      -12.7460676230      -17.0888800000  MEMB      138             0.0000000000
     15799       138  CHL1      O3             22.8675269751      -12.9365361031      -18.6748600000  MEMB      138             0.0000000000
     15800       138  CHL1      H3'            23.8201753239      -12.8789775039      -18.7784700000  MEMB      138             0.0000000000
     15801       138  CHL1      C4             23.5855960163      -11.8989343346      -16.6886100000  MEMB      138             0.0000000000
     15802       138  CHL1      H4A            24.6559493655      -12.1076975188      -16.9009300000  MEMB      138             0.0000000000
     15803       138  CHL1      H4B            23.2979984600      -10.8964294243      -17.0714700000  MEMB      138             0.0000000000
     15804       138  CHL1      C5             23.4085377359      -11.8409485238      -15.2183700000  MEMB      138             0.0000000000
     15805       138  CHL1      C6             22.9522345248      -10.7164282435      -14.6356600000  MEMB      138             0.0000000000
     15806       138  CHL1      H6             22.8134760426       -9.8493640883      -15.2981800000  MEMB      138             0.0000000000
     15807       138  CHL1      C7             22.6937491680      -10.4768600070      -13.1802300000  MEMB      138             0.0000000000
     15808       138  CHL1      H7A            23.1316870391       -9.5142872862      -12.8396600000  MEMB      138             0.0000000000
     15809       138  CHL1      H7B            21.5869426093      -10.4854031228      -13.0841400000  MEMB      138             0.0000000000
     15810       138  CHL1      C8             23.2373784547      -11.6377033673      -12.3429500000  MEMB      138             0.0000000000
     15811       138  CHL1      H8             24.3464642349      -11.5881440529      -12.3005500000  MEMB      138             0.0000000000
     15812       138  CHL1      C14            22.5584173118      -11.6488115003      -10.9672200000  MEMB      138             0.0000000000
     15813       138  CHL1      H14            21.5000290852      -11.7231705838      -11.2968000000  MEMB      138             0.0000000000
     15814       138  CHL1      C15            22.6365056912      -10.4197497228      -10.1104900000  MEMB      138             0.0000000000
     15815       138  CHL1      H15A           23.6990730313      -10.0982413564      -10.1541700000  MEMB      138             0.0000000000
     15816       138  CHL1      H15B           21.8347098384       -9.7993221924      -10.5649300000  MEMB      138             0.0000000000
     15817       138  CHL1      C16            22.3729905356      -10.9747736564       -8.6379000000  MEMB      138             0.0000000000
     15818       138  CHL1      H16A           23.2940280258      -10.7628612370       -8.0538700000  MEMB      138             0.0000000000
     15819       138  CHL1      H16B           21.4210501065      -10.5474109815       -8.2564400000  MEMB      138             0.0000000000
     15820       138  CHL1      C17            22.2711298237      -12.5191906210       -8.7012000000  MEMB      138             0.0000000000
     15821       138  CHL1      H17            21.1759500144      -12.6387469216       -8.8447800000  MEMB      138             0.0000000000
     15822       138  CHL1      C13            22.8694824141      -12.8482339873      -10.0734000000  MEMB      138             0.0000000000
     15823       138  CHL1      C18            24.3944430437      -12.7881345294       -9.7726200000  MEMB      138             0.0000000000
     15824       138  CHL1      H18A           24.6412121789      -13.5961503651       -9.0511400000  MEMB      138             0.0000000000
     15825       138  CHL1      H18B           25.1317697662      -12.9850135104      -10.5800300000  MEMB      138             0.0000000000
     15826       138  CHL1      H18C           24.6225596300      -11.8208058394       -9.2760700000  MEMB      138             0.0000000000
     15827       138  CHL1      C12            22.4328331592      -14.1875251525      -10.7985100000  MEMB      138             0.0000000000
     15828       138  CHL1      H12A           22.5474488589      -14.9814036872      -10.0297800000  MEMB      138             0.0000000000
     15829       138  CHL1      H12B           21.3338859253      -14.1660227326      -10.9603200000  MEMB      138             0.0000000000
     15830       138  CHL1      C11            23.1384005896      -14.3278567245      -12.1048200000  MEMB      138             0.0000000000
     15831       138  CHL1      H11A           24.2129229716      -14.5726877623      -11.9641600000  MEMB      138             0.0000000000
     15832       138  CHL1      H11B           22.5277110693      -15.0509760830      -12.6866000000  MEMB      138             0.0000000000
     15833       138  CHL1      C9             22.9717085874      -13.0420029043      -13.1133300000  MEMB      138             0.0000000000
     15834       138  CHL1      H9             21.8858513109      -13.1596379083      -13.3167900000  MEMB      138             0.0000000000
     15835       138  CHL1      C10            23.6184121225      -13.1806855899      -14.5276300000  MEMB      138             0.0000000000
     15836       138  CHL1      C19            25.1565407063      -13.4757357673      -14.3390400000  MEMB      138             0.0000000000
     15837       138  CHL1      H19A           25.5682176068      -13.3463779904      -15.3628100000  MEMB      138             0.0000000000
     15838       138  CHL1      H19B           25.5389546456      -12.6560446923      -13.6939200000  MEMB      138             0.0000000000
     15839       138  CHL1      H19C           25.3655738748      -14.4007406766      -13.7602500000  MEMB      138             0.0000000000
     15840       138  CHL1      C1             22.9775989269      -14.4140964083      -15.2433400000  MEMB      138             0.0000000000
     15841       138  CHL1      H1A            23.2965933320      -15.3921175692      -14.8237700000  MEMB      138             0.0000000000
     15842       138  CHL1      H1B            21.8937827890      -14.3122151651      -15.0213700000  MEMB      138             0.0000000000
     15843       138  CHL1      C2             23.1750023903      -14.3786986352      -16.7362900000  MEMB      138             0.0000000000
     15844       138  CHL1      H2A            22.4845081373      -15.0898328348      -17.2381100000  MEMB      138             0.0000000000
     15845       138  CHL1      H2B            24.2095130135      -14.6466473234      -17.0401200000  MEMB      138             0.0000000000
     15846       138  CHL1      C20            22.6224592335      -13.2928070822       -7.4240700000  MEMB      138             0.0000000000
     15847       138  CHL1      H20            23.6706248509      -13.0614362130       -7.1374700000  MEMB      138             0.0000000000
     15848       138  CHL1      C21            22.4752809996      -14.8954143914       -7.5244800000  MEMB      138             0.0000000000
     15849       138  CHL1      H21A           23.3100223788      -15.4982616859       -7.9417500000  MEMB      138             0.0000000000
     15850       138  CHL1      H21B           21.5876336806      -15.2376182341       -8.0983200000  MEMB      138             0.0000000000
     15851       138  CHL1      H21C           22.4189707165      -15.2233871960       -6.4644900000  MEMB      138             0.0000000000
     15852       138  CHL1      C22            21.8052785493      -12.7367380188       -6.2046800000  MEMB      138             0.0000000000
     15853       138  CHL1      H22A           21.6580132512      -11.6376729996       -6.2730900000  MEMB      138             0.0000000000
     15854       138  CHL1      H22B           20.8505469952      -13.2919868501       -6.0842800000  MEMB      138             0.0000000000
     15855       138  CHL1      C23            22.6482399406      -12.8193303630       -4.9466300000  MEMB      138             0.0000000000
     15856       138  CHL1      H23A           23.0119834634      -13.8618605238       -4.8235600000  MEMB      138             0.0000000000
     15857       138  CHL1      H23B           23.4918266365      -12.1122160699       -5.0971800000  MEMB      138             0.0000000000
     15858       138  CHL1      C24            21.9073274947      -12.3655275296       -3.6843200000  MEMB      138             0.0000000000
     15859       138  CHL1      H24A           21.4924959216      -11.3609898224       -3.9148200000  MEMB      138             0.0000000000
     15860       138  CHL1      H24B           21.0933526892      -13.0962724904       -3.4899500000  MEMB      138             0.0000000000
     15861       138  CHL1      C25            22.8651788205      -12.3825330159       -2.4052800000  MEMB      138             0.0000000000
     15862       138  CHL1      H25            23.6535257685      -11.6071631673       -2.5132000000  MEMB      138             0.0000000000
     15863       138  CHL1      C26            22.0417963956      -12.2038575671       -1.1423900000  MEMB      138             0.0000000000
     15864       138  CHL1      H26A           21.5230565702      -11.2234724560       -1.0785200000  MEMB      138             0.0000000000
     15865       138  CHL1      H26B           21.2550791690      -12.9700900086       -0.9741600000  MEMB      138             0.0000000000
     15866       138  CHL1      H26C           22.8291976454      -12.2694358561       -0.3613500000  MEMB      138             0.0000000000
     15867       138  CHL1      C27            23.5842495775      -13.7337636263       -2.1792800000  MEMB      138             0.0000000000
     15868       138  CHL1      H27A           22.8317590650      -14.4501711569       -1.7857800000  MEMB      138             0.0000000000
     15869       138  CHL1      H27B           23.8973478070      -14.2700496119       -3.1005200000  MEMB      138             0.0000000000
     15870       138  CHL1      H27C           24.3641767176      -13.6291587003       -1.3950100000  MEMB      138             0.0000000000
     15871       139  SOPE      N               3.5161118615      -29.3894238627      -21.6586912374  MEMB      139             0.0000000000
     15872       139  SOPE      HN1             3.6172051310      -30.2570828172      -21.0942907857  MEMB      139             0.0000000000
     15873       139  SOPE      HN2             2.8662624122      -28.6937354667      -21.2399865450  MEMB      139             0.0000000000
     15874       139  SOPE      HN3             3.1608902819      -29.5810735529      -22.6171733681  MEMB      139             0.0000000000
     15875       139  SOPE      C12             4.8175657377      -28.6673917440      -21.6464796616  MEMB      139             0.0000000000
     15876       139  SOPE      H12A            5.1085174024      -28.4952629416      -22.7047989922  MEMB      139             0.0000000000
     15877       139  SOPE      H12B            5.5614634249      -29.3682407238      -21.2108789864  MEMB      139             0.0000000000
     15878       139  SOPE      C11             4.8561326064      -27.2529291096      -20.9715904954  MEMB      139             0.0000000000
     15879       139  SOPE      H11A            5.8192903170      -26.7039758042      -21.0443805482  MEMB      139             0.0000000000
     15880       139  SOPE      H11B            4.6436990874      -27.5655342212      -19.9268555594  MEMB      139             0.0000000000
     15881       139  SOPE      P               2.7138262216      -25.7173089592      -20.7208970553  MEMB      139             0.0000000000
     15882       139  SOPE      O13             1.9017245265      -26.8562697623      -20.3597575214  MEMB      139             0.0000000000
     15883       139  SOPE      O14             2.1910633792      -24.6486204547      -21.6135807238  MEMB      139             0.0000000000
     15884       139  SOPE      O12             3.9734412300      -26.3060395538      -21.5875639537  MEMB      139             0.0000000000
     15885       139  SOPE      O11             3.4511148419      -25.1360277544      -19.4414393485  MEMB      139             0.0000000000
     15886       139  SOPE      C1              4.5089271661      -24.1715994793      -19.6219079234  MEMB      139             0.0000000000
     15887       139  SOPE      HA              4.0750731434      -23.2973638780      -20.1527600422  MEMB      139             0.0000000000
     15888       139  SOPE      HB              5.2606598272      -24.6891847354      -20.2554097356  MEMB      139             0.0000000000
     15889       139  SOPE      C2              5.1264004417      -23.6680102848      -18.2262191928  MEMB      139             0.0000000000
     15890       139  SOPE      HS              5.9246930438      -22.9206026002      -18.4222593572  MEMB      139             0.0000000000
     15891       139  SOPE      O21             5.5363095787      -24.7843580114      -17.4482354221  MEMB      139             0.0000000000
     15892       139  SOPE      C21             6.7784605522      -25.2543560317      -17.7463451174  MEMB      139             0.0000000000
     15893       139  SOPE      O22             7.4792544828      -24.7090514793      -18.6218741907  MEMB      139             0.0000000000
     15894       139  SOPE      C22             6.9806204838      -26.6437299698      -17.1785473985  MEMB      139             0.0000000000
     15895       139  SOPE      H2R             7.6831704285      -26.5373186798      -16.3244858226  MEMB      139             0.0000000000
     15896       139  SOPE      H2S             7.5324855117      -27.3005769948      -17.8844639516  MEMB      139             0.0000000000
     15897       139  SOPE      C3              3.9659274180      -22.8868898178      -17.5221721459  MEMB      139             0.0000000000
     15898       139  SOPE      HX              3.6916579270      -22.0052834059      -18.1401261362  MEMB      139             0.0000000000
     15899       139  SOPE      HY              4.3710607080      -22.2887142110      -16.6781499951  MEMB      139             0.0000000000
     15900       139  SOPE      O31             2.8591024785      -23.6871388291      -17.0367056147  MEMB      139             0.0000000000
     15901       139  SOPE      C31             2.8723069320      -23.9686631009      -15.6596629284  MEMB      139             0.0000000000
     15902       139  SOPE      O32             3.7741320552      -23.6690607266      -14.8905616343  MEMB      139             0.0000000000
     15903       139  SOPE      C32             1.6236933505      -24.7615691062      -15.2130459129  MEMB      139             0.0000000000
     15904       139  SOPE      H2X             1.7819247446      -25.8165116322      -15.5234973904  MEMB      139             0.0000000000
     15905       139  SOPE      H2Y             0.7691702721      -24.3811916339      -15.8125659444  MEMB      139             0.0000000000
     15906       139  SOPE      C23             5.6806111524      -27.2976736228      -16.7330183268  MEMB      139             0.0000000000
     15907       139  SOPE      H3R             4.9711217451      -27.6769680091      -17.4992308111  MEMB      139             0.0000000000
     15908       139  SOPE      H3S             5.1158138924      -26.5976312256      -16.0808944001  MEMB      139             0.0000000000
     15909       139  SOPE      C24             5.8739004891      -28.4604524300      -15.7511880425  MEMB      139             0.0000000000
     15910       139  SOPE      H4R             6.3010921871      -29.2518895538      -16.4034574313  MEMB      139             0.0000000000
     15911       139  SOPE      H4S             6.4739755749      -28.4429229764      -14.8163495845  MEMB      139             0.0000000000
     15912       139  SOPE      C25             4.5078195494      -29.0239420866      -15.3810996044  MEMB      139             0.0000000000
     15913       139  SOPE      H5R             3.7957893220      -28.4956738543      -16.0506265079  MEMB      139             0.0000000000
     15914       139  SOPE      H5S             4.6004761840      -30.1199756990      -15.5374517202  MEMB      139             0.0000000000
     15915       139  SOPE      C26             4.0321192547      -28.7512192776      -13.9455806556  MEMB      139             0.0000000000
     15916       139  SOPE      H6R             4.0229844769      -27.6650802841      -13.7120434194  MEMB      139             0.0000000000
     15917       139  SOPE      H6S             3.0261151062      -29.2206000894      -13.9898338992  MEMB      139             0.0000000000
     15918       139  SOPE      C27             4.7423230662      -29.4257533271      -12.7616053575  MEMB      139             0.0000000000
     15919       139  SOPE      H7R             4.7815999388      -30.5213506510      -12.9417297742  MEMB      139             0.0000000000
     15920       139  SOPE      H7S             5.6924908547      -28.8712857005      -12.6064673680  MEMB      139             0.0000000000
     15921       139  SOPE      C28             3.9950718546      -29.2989317374      -11.4397732159  MEMB      139             0.0000000000
     15922       139  SOPE      H8R             3.9081481870      -28.2198818738      -11.1899399046  MEMB      139             0.0000000000
     15923       139  SOPE      H8S             2.9020610205      -29.4302244522      -11.5894750157  MEMB      139             0.0000000000
     15924       139  SOPE      C29             4.6790114938      -30.1152882975      -10.3423954989  MEMB      139             0.0000000000
     15925       139  SOPE      H91             5.2291364518      -31.0508219679      -10.5216703907  MEMB      139             0.0000000000
     15926       139  SOPE      C210            4.5275999759      -29.8541461969       -9.0063405800  MEMB      139             0.0000000000
     15927       139  SOPE      H101            5.0866850351      -30.5355134949       -8.3481896166  MEMB      139             0.0000000000
     15928       139  SOPE      C211            3.6754620887      -28.7571074151       -8.3701184341  MEMB      139             0.0000000000
     15929       139  SOPE      H11R            3.0086955683      -28.2301217489       -9.0856807518  MEMB      139             0.0000000000
     15930       139  SOPE      H11S            4.4009826144      -28.0447119279       -7.9224200650  MEMB      139             0.0000000000
     15931       139  SOPE      C212            2.6897256031      -29.3132657374       -7.3498978434  MEMB      139             0.0000000000
     15932       139  SOPE      H12R            1.9964480174      -30.0104992459       -7.8671525993  MEMB      139             0.0000000000
     15933       139  SOPE      H12S            1.9070812160      -28.6286301245       -6.9586650624  MEMB      139             0.0000000000
     15934       139  SOPE      C213            3.2874977634      -29.9397252593       -6.1030296427  MEMB      139             0.0000000000
     15935       139  SOPE      H13R            4.0654219380      -30.6456848527       -6.4646589837  MEMB      139             0.0000000000
     15936       139  SOPE      H13S            2.5087197936      -30.5978659290       -5.6618078276  MEMB      139             0.0000000000
     15937       139  SOPE      C214            3.8812999886      -28.8216667872       -5.1744752937  MEMB      139             0.0000000000
     15938       139  SOPE      H14R            4.3285476094      -28.0804755697       -5.8708420477  MEMB      139             0.0000000000
     15939       139  SOPE      H14S            4.7469488460      -29.2773554652       -4.6478621852  MEMB      139             0.0000000000
     15940       139  SOPE      C215            2.7370894272      -28.4206800123       -4.2085878204  MEMB      139             0.0000000000
     15941       139  SOPE      H15R            2.0868241476      -29.2657227039       -3.8965319346  MEMB      139             0.0000000000
     15942       139  SOPE      H15S            2.0400282103      -27.7693936713       -4.7780194661  MEMB      139             0.0000000000
     15943       139  SOPE      C216            3.2764635697      -27.7091148438       -3.0047981932  MEMB      139             0.0000000000
     15944       139  SOPE      H16R            2.3461140185      -27.3125381162       -2.5449091771  MEMB      139             0.0000000000
     15945       139  SOPE      H16S            3.9534686276      -26.9164445463       -3.3890594183  MEMB      139             0.0000000000
     15946       139  SOPE      C217            4.0684254489      -28.7052808029       -2.0822664148  MEMB      139             0.0000000000
     15947       139  SOPE      H17R            5.0604213239      -28.2063680484       -2.0455219268  MEMB      139             0.0000000000
     15948       139  SOPE      H17S            4.0434662654      -29.6806135760       -2.6137015784  MEMB      139             0.0000000000
     15949       139  SOPE      C218            3.5639694554      -28.9676299488       -0.6785162257  MEMB      139             0.0000000000
     15950       139  SOPE      H18R            2.4993322853      -29.2804829704       -0.7332045372  MEMB      139             0.0000000000
     15951       139  SOPE      H18S            3.7083401329      -28.1178343987        0.0224302118  MEMB      139             0.0000000000
     15952       139  SOPE      H18T            4.0678486711      -29.9042564599       -0.3573346101  MEMB      139             0.0000000000
     15953       139  SOPE      C33             1.3214001133      -24.8926238716      -13.6675391474  MEMB      139             0.0000000000
     15954       139  SOPE      H3X             0.2287250222      -25.0928703570      -13.6507029610  MEMB      139             0.0000000000
     15955       139  SOPE      H3Y             1.4085067136      -24.0075646498      -13.0016535793  MEMB      139             0.0000000000
     15956       139  SOPE      C34             2.0872464841      -25.9994269695      -12.9158716085  MEMB      139             0.0000000000
     15957       139  SOPE      H4X             3.1675422973      -25.7741729304      -13.0444895059  MEMB      139             0.0000000000
     15958       139  SOPE      H4Y             1.8371864263      -26.9855516403      -13.3623572309  MEMB      139             0.0000000000
     15959       139  SOPE      C35             1.7550497594      -25.9986849068      -11.4384865033  MEMB      139             0.0000000000
     15960       139  SOPE      H5X             2.4909138708      -25.3647014204      -10.8991444587  MEMB      139             0.0000000000
     15961       139  SOPE      H5Y             2.0499717978      -26.9198653264      -10.8918891338  MEMB      139             0.0000000000
     15962       139  SOPE      C36             0.3429588678      -25.5947575215      -11.0141884105  MEMB      139             0.0000000000
     15963       139  SOPE      H6X            -0.4527216687      -25.8970334073      -11.7282216071  MEMB      139             0.0000000000
     15964       139  SOPE      H6Y             0.3204295782      -24.4931299240      -10.8719538805  MEMB      139             0.0000000000
     15965       139  SOPE      C37            -0.0101244298      -26.1573316681       -9.6204499210  MEMB      139             0.0000000000
     15966       139  SOPE      H7X             0.1509426898      -27.2557647465       -9.5777501235  MEMB      139             0.0000000000
     15967       139  SOPE      H7Y            -1.0846797419      -25.9666713872       -9.4123616927  MEMB      139             0.0000000000
     15968       139  SOPE      C38             0.7658027802      -25.5449300771       -8.4056536009  MEMB      139             0.0000000000
     15969       139  SOPE      H8X             0.6504269559      -24.4500116435       -8.5545259936  MEMB      139             0.0000000000
     15970       139  SOPE      H8Y             1.8261545648      -25.8429589843       -8.5510984370  MEMB      139             0.0000000000
     15971       139  SOPE      C39             0.2173627957      -25.9113406559       -7.0523770386  MEMB      139             0.0000000000
     15972       139  SOPE      H9X             0.5575530457      -26.9611208663       -6.9237192716  MEMB      139             0.0000000000
     15973       139  SOPE      H9Y            -0.8909905256      -25.8878383320       -6.9794280449  MEMB      139             0.0000000000
     15974       139  SOPE      C310            0.9165165235      -25.1742681848       -5.8926052988  MEMB      139             0.0000000000
     15975       139  SOPE      H10X            1.2359409548      -24.1844083053       -6.2830749639  MEMB      139             0.0000000000
     15976       139  SOPE      H10Y            1.8957469656      -25.6686994255       -5.7166316302  MEMB      139             0.0000000000
     15977       139  SOPE      C311           -0.0139088795      -24.9888782499       -4.6912045110  MEMB      139             0.0000000000
     15978       139  SOPE      H11X           -1.0054974505      -24.5955732450       -5.0016623209  MEMB      139             0.0000000000
     15979       139  SOPE      H11Y            0.4669187020      -24.3500619402       -3.9198163571  MEMB      139             0.0000000000
     15980       139  SOPE      C312           -0.4506907851      -26.3696866738       -4.0030206205  MEMB      139             0.0000000000
     15981       139  SOPE      H12X            0.4716203253      -26.7913102429       -3.5492623126  MEMB      139             0.0000000000
     15982       139  SOPE      H12Y           -0.8018103669      -27.1017524430       -4.7613853831  MEMB      139             0.0000000000
     15983       139  SOPE      C313           -1.6095256426      -26.2326424837       -3.0404065126  MEMB      139             0.0000000000
     15984       139  SOPE      H13X           -2.5660679186      -25.8776079324       -3.4800632739  MEMB      139             0.0000000000
     15985       139  SOPE      H13Y           -1.2876780125      -25.4696577443       -2.2997385440  MEMB      139             0.0000000000
     15986       139  SOPE      C314           -1.9942762249      -27.5142978209       -2.2496468801  MEMB      139             0.0000000000
     15987       139  SOPE      H14X           -2.1232067237      -28.2907983733       -3.0337044082  MEMB      139             0.0000000000
     15988       139  SOPE      H14Y           -2.9911893357      -27.4559125156       -1.7627434836  MEMB      139             0.0000000000
     15989       139  SOPE      C315           -0.9320746815      -28.0025054201       -1.1778369260  MEMB      139             0.0000000000
     15990       139  SOPE      H15X            0.1191323863      -28.0607562645       -1.5326470168  MEMB      139             0.0000000000
     15991       139  SOPE      H15Y           -1.2097730600      -29.0591189317       -0.9759143321  MEMB      139             0.0000000000
     15992       139  SOPE      C316           -1.1110510742      -27.2384893777        0.1320377614  MEMB      139             0.0000000000
     15993       139  SOPE      H16X           -2.1256243625      -27.2061703377        0.5836126949  MEMB      139             0.0000000000
     15994       139  SOPE      H16Y           -0.7841742988      -26.1829411163        0.0167574292  MEMB      139             0.0000000000
     15995       139  SOPE      C317           -0.2198368891      -27.7634432339        1.3143021411  MEMB      139             0.0000000000
     15996       139  SOPE      H17X           -0.3323380202      -26.9965896477        2.1102922328  MEMB      139             0.0000000000
     15997       139  SOPE      H17Y            0.8510075615      -27.8751282753        1.0401861401  MEMB      139             0.0000000000
     15998       139  SOPE      C318           -0.6983420201      -29.0603168004        2.0058050717  MEMB      139             0.0000000000
     15999       139  SOPE      H18X           -1.7830709361      -29.0879830590        2.2443815883  MEMB      139             0.0000000000
     16000       139  SOPE      H18Y           -0.3101130371      -29.2361351086        3.0318093880  MEMB      139             0.0000000000
     16001       139  SOPE      H18Z           -0.4337762203      -29.9559286842        1.4039702007  MEMB      139             0.0000000000
     16002       140  CHL1      C3             17.1926534048       22.9080744213      -17.3262150000  MEMB      140             0.0000000000
     16003       140  CHL1      H3             18.2883619397       22.7584629811      -17.2197150000  MEMB      140             0.0000000000
     16004       140  CHL1      O3             16.6624571952       22.7477735787      -18.6737850000  MEMB      140             0.0000000000
     16005       140  CHL1      H3'            16.1266101922       23.5200461373      -18.8688950000  MEMB      140             0.0000000000
     16006       140  CHL1      C4             16.5984456717       21.8515859882      -16.4037550000  MEMB      140             0.0000000000
     16007       140  CHL1      H4A            15.4986222040       21.8512227805      -16.5609550000  MEMB      140             0.0000000000
     16008       140  CHL1      H4B            16.9923173061       20.8690672938      -16.7411450000  MEMB      140             0.0000000000
     16009       140  CHL1      C5             16.9259758645       21.9897601927      -14.9742350000  MEMB      140             0.0000000000
     16010       140  CHL1      C6             17.4196605637       21.0359891973      -14.2397050000  MEMB      140             0.0000000000
     16011       140  CHL1      H6             17.6397524419       20.1015368875      -14.7766950000  MEMB      140             0.0000000000
     16012       140  CHL1      C7             17.8854748959       21.1174659575      -12.8338450000  MEMB      140             0.0000000000
     16013       140  CHL1      H7A            17.6032955198       20.1886419674      -12.2934850000  MEMB      140             0.0000000000
     16014       140  CHL1      H7B            18.9946567397       21.1787442668      -12.8166950000  MEMB      140             0.0000000000
     16015       140  CHL1      C8             17.2765086851       22.3164111798      -12.2000350000  MEMB      140             0.0000000000
     16016       140  CHL1      H8             16.1730206230       22.3088313421      -12.0713050000  MEMB      140             0.0000000000
     16017       140  CHL1      C14            17.9838434991       22.5940077233      -10.7923650000  MEMB      140             0.0000000000
     16018       140  CHL1      H14            19.0456106717       22.8432918247      -11.0040750000  MEMB      140             0.0000000000
     16019       140  CHL1      C15            18.0506728879       21.3786024683       -9.8141650000  MEMB      140             0.0000000000
     16020       140  CHL1      H15A           17.0440116778       20.9097812279       -9.8483150000  MEMB      140             0.0000000000
     16021       140  CHL1      H15B           18.8389889852       20.6185003249      -10.0015950000  MEMB      140             0.0000000000
     16022       140  CHL1      C16            18.2519453871       22.0679170585       -8.4974650000  MEMB      140             0.0000000000
     16023       140  CHL1      H16A           17.3896338493       21.8159678638       -7.8438250000  MEMB      140             0.0000000000
     16024       140  CHL1      H16B           19.2345242515       21.7516477527       -8.0865650000  MEMB      140             0.0000000000
     16025       140  CHL1      C17            18.2350955774       23.6018550945       -8.7454550000  MEMB      140             0.0000000000
     16026       140  CHL1      H17            19.2845992740       23.8692532693       -8.9931650000  MEMB      140             0.0000000000
     16027       140  CHL1      C13            17.4224374316       23.7642083608      -10.0052750000  MEMB      140             0.0000000000
     16028       140  CHL1      C18            15.8549823802       23.7421518362       -9.7465950000  MEMB      140             0.0000000000
     16029       140  CHL1      H18A           15.2495564784       23.9419030001      -10.6564750000  MEMB      140             0.0000000000
     16030       140  CHL1      H18B           15.6027668081       22.7354801264       -9.3499750000  MEMB      140             0.0000000000
     16031       140  CHL1      H18C           15.6368229793       24.5101771781       -8.9740250000  MEMB      140             0.0000000000
     16032       140  CHL1      C12            17.7925565265       24.9545155930      -10.8759950000  MEMB      140             0.0000000000
     16033       140  CHL1      H12A           17.5598444766       25.8766007742      -10.3016150000  MEMB      140             0.0000000000
     16034       140  CHL1      H12B           18.8868756003       24.9105933059      -11.0626650000  MEMB      140             0.0000000000
     16035       140  CHL1      C11            17.1996404138       24.9721470686      -12.2655550000  MEMB      140             0.0000000000
     16036       140  CHL1      H11A           16.1086614818       25.1746301435      -12.2100350000  MEMB      140             0.0000000000
     16037       140  CHL1      H11B           17.6101395072       25.8344373149      -12.8332450000  MEMB      140             0.0000000000
     16038       140  CHL1      C9             17.5260099058       23.5956256695      -13.0253350000  MEMB      140             0.0000000000
     16039       140  CHL1      H9             18.6002937338       23.6449084173      -13.3042750000  MEMB      140             0.0000000000
     16040       140  CHL1      C10            16.8907729236       23.4642688523      -14.4574850000  MEMB      140             0.0000000000
     16041       140  CHL1      C19            15.3323521218       23.8008076897      -14.3969750000  MEMB      140             0.0000000000
     16042       140  CHL1      H19A           14.8134673706       23.5698248656      -15.3518250000  MEMB      140             0.0000000000
     16043       140  CHL1      H19B           14.9107398181       23.1717933510      -13.5840150000  MEMB      140             0.0000000000
     16044       140  CHL1      H19C           15.3137791638       24.8877942304      -14.1679850000  MEMB      140             0.0000000000
     16045       140  CHL1      C1             17.5738955863       24.4565280608      -15.3787950000  MEMB      140             0.0000000000
     16046       140  CHL1      H1A            17.4382620859       25.4802530238      -14.9690350000  MEMB      140             0.0000000000
     16047       140  CHL1      H1B            18.6396933631       24.1623472567      -15.2698950000  MEMB      140             0.0000000000
     16048       140  CHL1      C2             17.1014198598       24.3966094527      -16.8711550000  MEMB      140             0.0000000000
     16049       140  CHL1      H2A            17.7613124265       24.9360392754      -17.5838050000  MEMB      140             0.0000000000
     16050       140  CHL1      H2B            16.0580983994       24.7678398103      -16.9605850000  MEMB      140             0.0000000000
     16051       140  CHL1      C20            17.9333508195       24.4321535790       -7.4796750000  MEMB      140             0.0000000000
     16052       140  CHL1      H20            16.9660000457       23.9573225802       -7.2093550000  MEMB      140             0.0000000000
     16053       140  CHL1      C21            17.6865110331       25.9007826782       -7.6643450000  MEMB      140             0.0000000000
     16054       140  CHL1      H21A           17.6697794679       26.2911973187       -6.6243450000  MEMB      140             0.0000000000
     16055       140  CHL1      H21B           16.7004296495       25.9788511350       -8.1701650000  MEMB      140             0.0000000000
     16056       140  CHL1      H21C           18.5418593248       26.3703843751       -8.1955550000  MEMB      140             0.0000000000
     16057       140  CHL1      C22            18.8237736310       24.2271966936       -6.2425050000  MEMB      140             0.0000000000
     16058       140  CHL1      H22A           19.5564589082       23.4110084669       -6.4194850000  MEMB      140             0.0000000000
     16059       140  CHL1      H22B           19.5924960134       25.0175768598       -6.1057950000  MEMB      140             0.0000000000
     16060       140  CHL1      C23            18.0795428768       23.7816535810       -4.9901450000  MEMB      140             0.0000000000
     16061       140  CHL1      H23A           17.4356008787       24.6315125490       -4.6780450000  MEMB      140             0.0000000000
     16062       140  CHL1      H23B           17.3010029827       23.0546945546       -5.3059450000  MEMB      140             0.0000000000
     16063       140  CHL1      C24            19.0967413731       23.3593467744       -3.8909350000  MEMB      140             0.0000000000
     16064       140  CHL1      H24A           19.5412772291       22.4005019527       -4.2334750000  MEMB      140             0.0000000000
     16065       140  CHL1      H24B           19.8568433748       24.1586343666       -3.7579050000  MEMB      140             0.0000000000
     16066       140  CHL1      C25            18.3258448073       23.1589648501       -2.5568750000  MEMB      140             0.0000000000
     16067       140  CHL1      H25            18.0432977022       24.2071435910       -2.3206450000  MEMB      140             0.0000000000
     16068       140  CHL1      C26            17.0035269370       22.2751135756       -2.5826050000  MEMB      140             0.0000000000
     16069       140  CHL1      H26A           16.2527219753       22.6924663190       -3.2871850000  MEMB      140             0.0000000000
     16070       140  CHL1      H26B           17.2255683229       21.2289765103       -2.8836550000  MEMB      140             0.0000000000
     16071       140  CHL1      H26C           16.5769998070       22.1827719298       -1.5609050000  MEMB      140             0.0000000000
     16072       140  CHL1      C27            19.3094412384       22.6892491751       -1.4460250000  MEMB      140             0.0000000000
     16073       140  CHL1      H27A           18.8796927176       22.8149380774       -0.4292450000  MEMB      140             0.0000000000
     16074       140  CHL1      H27B           19.6640977194       21.6435578264       -1.5687850000  MEMB      140             0.0000000000
     16075       140  CHL1      H27C           20.2192841931       23.3268162893       -1.4486150000  MEMB      140             0.0000000000
     16076       141  SAPC      N              10.7356651814       26.5387673093      -22.2378188490  MEMB      141             0.0000000000
     16077       141  SAPC      C12             9.7296237672       25.6847637058      -21.4497960505  MEMB      141             0.0000000000
     16078       141  SAPC      H12A            9.7108109777       24.6844368144      -21.8564802729  MEMB      141             0.0000000000
     16079       141  SAPC      H12B            8.7089023881       25.9645149724      -21.6648937536  MEMB      141             0.0000000000
     16080       141  SAPC      C13            12.1004035619       26.1910401343      -21.7671623367  MEMB      141             0.0000000000
     16081       141  SAPC      H13A           12.5195353588       25.2192950830      -21.9826615720  MEMB      141             0.0000000000
     16082       141  SAPC      H13B           12.8002790310       26.8486320269      -22.2612751254  MEMB      141             0.0000000000
     16083       141  SAPC      H13C           12.1213149375       26.4143386367      -20.7107057655  MEMB      141             0.0000000000
     16084       141  SAPC      C14            10.5560200751       26.2676122358      -23.6917507756  MEMB      141             0.0000000000
     16085       141  SAPC      H14A            9.4931798333       26.2685310268      -23.8835056740  MEMB      141             0.0000000000
     16086       141  SAPC      H14B           11.0081862194       27.0740338855      -24.2499888496  MEMB      141             0.0000000000
     16087       141  SAPC      H14C           11.0591284883       25.3373068824      -23.9104143886  MEMB      141             0.0000000000
     16088       141  SAPC      C15            10.5268194995       27.9844917816      -21.9965919575  MEMB      141             0.0000000000
     16089       141  SAPC      H15A           11.3119087164       28.4736528049      -22.5540474321  MEMB      141             0.0000000000
     16090       141  SAPC      H15B            9.5600663976       28.3973731019      -22.2442156681  MEMB      141             0.0000000000
     16091       141  SAPC      H15C           10.6305049802       28.0571040463      -20.9240357984  MEMB      141             0.0000000000
     16092       141  SAPC      C11             9.8867200181       25.6157335463      -19.9115761322  MEMB      141             0.0000000000
     16093       141  SAPC      H11A           10.8122909761       25.1249759954      -19.5417161899  MEMB      141             0.0000000000
     16094       141  SAPC      H11B            8.9748870948       24.9944447160      -19.7816456198  MEMB      141             0.0000000000
     16095       141  SAPC      P               9.6741886939       27.0802135418      -17.7645688153  MEMB      141             0.0000000000
     16096       141  SAPC      O13             8.5693247498       28.0932704606      -17.4226446591  MEMB      141             0.0000000000
     16097       141  SAPC      O14             9.5555774651       25.7621031119      -17.1013439665  MEMB      141             0.0000000000
     16098       141  SAPC      O12             9.7284882026       26.9222373940      -19.3110971929  MEMB      141             0.0000000000
     16099       141  SAPC      O11            10.9981342912       27.7962997854      -17.3456492627  MEMB      141             0.0000000000
     16100       141  SAPC      C1             11.8685166286       28.3883789039      -18.2513394792  MEMB      141             0.0000000000
     16101       141  SAPC      HA             12.0889102662       27.5949565544      -18.9971468268  MEMB      141             0.0000000000
     16102       141  SAPC      HB             11.4199656716       29.2305751586      -18.8203987305  MEMB      141             0.0000000000
     16103       141  SAPC      C2             13.0648335564       28.7862919478      -17.4132904164  MEMB      141             0.0000000000
     16104       141  SAPC      HS             13.9132619261       28.9582126876      -18.1096621099  MEMB      141             0.0000000000
     16105       141  SAPC      O21            13.4296817113       27.6644840806      -16.5728525898  MEMB      141             0.0000000000
     16106       141  SAPC      C21            14.7449247790       27.5018687892      -16.3593651195  MEMB      141             0.0000000000
     16107       141  SAPC      O22            15.6615344813       28.2330290149      -16.6773599054  MEMB      141             0.0000000000
     16108       141  SAPC      C22            14.9747187203       26.0458842689      -15.9921215981  MEMB      141             0.0000000000
     16109       141  SAPC      H2R            15.0119662823       25.4112283122      -16.9032449588  MEMB      141             0.0000000000
     16110       141  SAPC      H2S            15.9676258804       26.1179217452      -15.4988999633  MEMB      141             0.0000000000
     16111       141  SAPC      C3             12.8163329037       30.0129094153      -16.5120685832  MEMB      141             0.0000000000
     16112       141  SAPC      HX             12.7084264164       30.9102934216      -17.1581176237  MEMB      141             0.0000000000
     16113       141  SAPC      HY             13.7744710912       30.0934773153      -15.9554710503  MEMB      141             0.0000000000
     16114       141  SAPC      O31            11.5595143259       29.8302630557      -15.6790754420  MEMB      141             0.0000000000
     16115       141  SAPC      C31            11.7799183870       29.9823230088      -14.3826539102  MEMB      141             0.0000000000
     16116       141  SAPC      O32            12.8597133728       30.3142707708      -13.8163653585  MEMB      141             0.0000000000
     16117       141  SAPC      C32            10.5539567462       29.5632304415      -13.5432551608  MEMB      141             0.0000000000
     16118       141  SAPC      H2X            10.3775947072       30.2325108390      -12.6741855423  MEMB      141             0.0000000000
     16119       141  SAPC      H2Y            10.7184942224       28.6522133283      -12.9290105518  MEMB      141             0.0000000000
     16120       141  SAPC      C23            13.8802021797       25.4852929238      -14.9800242839  MEMB      141             0.0000000000
     16121       141  SAPC      H3R            13.9172913283       24.3948144499      -15.1893130691  MEMB      141             0.0000000000
     16122       141  SAPC      H3S            12.8740699036       25.8522488256      -15.2755945456  MEMB      141             0.0000000000
     16123       141  SAPC      C24            14.1531771989       25.8167675775      -13.5183920018  MEMB      141             0.0000000000
     16124       141  SAPC      H4R            14.0996786519       26.9168497463      -13.3725206640  MEMB      141             0.0000000000
     16125       141  SAPC      H4S            15.1552103129       25.4820833441      -13.1745360437  MEMB      141             0.0000000000
     16126       141  SAPC      C25            13.1141198026       25.3341827795      -12.5943531350  MEMB      141             0.0000000000
     16127       141  SAPC      H5R            12.5815153539       24.4382527997      -12.9459808474  MEMB      141             0.0000000000
     16128       141  SAPC      C26            12.8493779396       25.7820900638      -11.3525092120  MEMB      141             0.0000000000
     16129       141  SAPC      H6R            12.2253328725       25.1464304833      -10.7071371673  MEMB      141             0.0000000000
     16130       141  SAPC      C27            13.4968628638       26.8598347141      -10.5121812400  MEMB      141             0.0000000000
     16131       141  SAPC      H7R            13.0756959424       27.8335131857      -10.8421654270  MEMB      141             0.0000000000
     16132       141  SAPC      H7S            14.5806880335       26.9705097360      -10.7298849367  MEMB      141             0.0000000000
     16133       141  SAPC      C28            13.2379119510       26.6979039968       -9.0448481335  MEMB      141             0.0000000000
     16134       141  SAPC      H8R            12.1995525658       26.5792718705       -8.7017205476  MEMB      141             0.0000000000
     16135       141  SAPC      C29            14.2270530069       26.6771449572       -8.1086777081  MEMB      141             0.0000000000
     16136       141  SAPC      H9R            14.0700411391       26.5809930737       -7.0241956768  MEMB      141             0.0000000000
     16137       141  SAPC      C210           15.7200848534       26.8775038725       -8.3564736164  MEMB      141             0.0000000000
     16138       141  SAPC      H10R           16.2144321761       26.2164003081       -9.1000354964  MEMB      141             0.0000000000
     16139       141  SAPC      H10S           16.2705653641       26.5237676711       -7.4586078217  MEMB      141             0.0000000000
     16140       141  SAPC      C211           16.2404223768       28.2266117399       -8.7205341855  MEMB      141             0.0000000000
     16141       141  SAPC      H11R           16.8043779930       28.1839713093       -9.6640044685  MEMB      141             0.0000000000
     16142       141  SAPC      C212           16.1941464875       29.4211541634       -7.9806016947  MEMB      141             0.0000000000
     16143       141  SAPC      H12R           16.5697529605       30.3717152495       -8.3872383150  MEMB      141             0.0000000000
     16144       141  SAPC      C213           15.6440884923       29.7697214508       -6.6073194029  MEMB      141             0.0000000000
     16145       141  SAPC      H13R           14.6076491521       30.0922681166       -6.8441274719  MEMB      141             0.0000000000
     16146       141  SAPC      H13S           16.0236293169       30.7365130811       -6.2128788194  MEMB      141             0.0000000000
     16147       141  SAPC      C214           15.8348293107       28.7980820364       -5.5060656760  MEMB      141             0.0000000000
     16148       141  SAPC      H14R           16.8328595455       28.3425697753       -5.4257888713  MEMB      141             0.0000000000
     16149       141  SAPC      C215           15.0426688104       28.4446772782       -4.4524883560  MEMB      141             0.0000000000
     16150       141  SAPC      H15R           15.3470593301       27.6541501426       -3.7507659044  MEMB      141             0.0000000000
     16151       141  SAPC      C216           13.6054162792       28.9463328602       -4.0798828127  MEMB      141             0.0000000000
     16152       141  SAPC      H16R           13.4367937112       28.5752381289       -3.0463567324  MEMB      141             0.0000000000
     16153       141  SAPC      H16S           12.9209277879       28.3924059108       -4.7573504105  MEMB      141             0.0000000000
     16154       141  SAPC      C217           13.3886064153       30.4609010693       -4.1594638837  MEMB      141             0.0000000000
     16155       141  SAPC      H17R           12.2872834060       30.5684451677       -4.0602519694  MEMB      141             0.0000000000
     16156       141  SAPC      H17S           13.6356524783       30.9278629404       -5.1368256403  MEMB      141             0.0000000000
     16157       141  SAPC      C218           14.1475906087       31.3870710619       -3.1725769105  MEMB      141             0.0000000000
     16158       141  SAPC      H18R           14.5461701690       32.3096817663       -3.6461233688  MEMB      141             0.0000000000
     16159       141  SAPC      H18S           15.0654820066       30.8931146550       -2.7881260528  MEMB      141             0.0000000000
     16160       141  SAPC      C219           13.2843765218       31.8563617469       -2.0330578026  MEMB      141             0.0000000000
     16161       141  SAPC      H19R           12.4247463634       32.4732089420       -2.3719626027  MEMB      141             0.0000000000
     16162       141  SAPC      H19S           13.8861976422       32.6033842710       -1.4726204434  MEMB      141             0.0000000000
     16163       141  SAPC      C220           12.8981691705       30.8314858004       -0.8952154281  MEMB      141             0.0000000000
     16164       141  SAPC      H20R           12.3434107975       31.1948837579       -0.0038639144  MEMB      141             0.0000000000
     16165       141  SAPC      H20S           13.8479515584       30.5055463213       -0.4198232403  MEMB      141             0.0000000000
     16166       141  SAPC      H20T           12.4402233015       29.9257554978       -1.3471666523  MEMB      141             0.0000000000
     16167       141  SAPC      C33             9.1990619504       29.4419563768      -14.2827755185  MEMB      141             0.0000000000
     16168       141  SAPC      H3X             9.0140406730       28.4622274628      -14.7728977109  MEMB      141             0.0000000000
     16169       141  SAPC      H3Y             9.2953684844       30.2236964549      -15.0663117845  MEMB      141             0.0000000000
     16170       141  SAPC      C34             7.9895709306       29.8256612964      -13.3832454551  MEMB      141             0.0000000000
     16171       141  SAPC      H4X             7.0691841566       30.0219531247      -13.9737354728  MEMB      141             0.0000000000
     16172       141  SAPC      H4Y             8.2032511824       30.7504574648      -12.8058258268  MEMB      141             0.0000000000
     16173       141  SAPC      C35             7.7271313411       28.6798405185      -12.3494129235  MEMB      141             0.0000000000
     16174       141  SAPC      H5X             8.5480917957       28.8297353453      -11.6160120137  MEMB      141             0.0000000000
     16175       141  SAPC      H5Y             7.9257909648       27.7418606174      -12.9107056334  MEMB      141             0.0000000000
     16176       141  SAPC      C36             6.3196123943       28.6950434410      -11.6536585557  MEMB      141             0.0000000000
     16177       141  SAPC      H6X             5.6259083610       28.8571717712      -12.5061905289  MEMB      141             0.0000000000
     16178       141  SAPC      H6Y             6.2468210376       29.5508184859      -10.9489101103  MEMB      141             0.0000000000
     16179       141  SAPC      C37             6.1001916377       27.3740809859      -10.9426854702  MEMB      141             0.0000000000
     16180       141  SAPC      H7X             6.0499056738       26.5198537389      -11.6512668693  MEMB      141             0.0000000000
     16181       141  SAPC      H7Y             5.0525713243       27.4523736183      -10.5811837438  MEMB      141             0.0000000000
     16182       141  SAPC      C38             7.0102751176       26.9529162430       -9.8454804235  MEMB      141             0.0000000000
     16183       141  SAPC      H8X             7.9919191005       26.5997305550      -10.2275221866  MEMB      141             0.0000000000
     16184       141  SAPC      H8Y             6.5855263854       26.1329793197       -9.2277322260  MEMB      141             0.0000000000
     16185       141  SAPC      C39             7.3756494939       28.0350842575       -8.7260208766  MEMB      141             0.0000000000
     16186       141  SAPC      H9X             6.3705829231       28.4583998861       -8.5139690438  MEMB      141             0.0000000000
     16187       141  SAPC      H9Y             7.9411112595       28.9088682185       -9.1147047174  MEMB      141             0.0000000000
     16188       141  SAPC      C310            8.0363477034       27.6060290796       -7.4050922120  MEMB      141             0.0000000000
     16189       141  SAPC      H10X            7.6381784957       26.6682489533       -6.9619779748  MEMB      141             0.0000000000
     16190       141  SAPC      H10Y            8.0684990330       28.4251150576       -6.6551686666  MEMB      141             0.0000000000
     16191       141  SAPC      C311            9.4960525678       27.2680605897       -7.6391248801  MEMB      141             0.0000000000
     16192       141  SAPC      H11X            9.8956764759       27.6699623779       -8.5946862567  MEMB      141             0.0000000000
     16193       141  SAPC      H11Y            9.5958583539       26.1621886845       -7.6766367703  MEMB      141             0.0000000000
     16194       141  SAPC      C312           10.3321147651       27.4824199808       -6.3503710377  MEMB      141             0.0000000000
     16195       141  SAPC      H12X           10.3491860469       28.5757696292       -6.1538612862  MEMB      141             0.0000000000
     16196       141  SAPC      H12Y           11.3815203633       27.1491055580       -6.4985948221  MEMB      141             0.0000000000
     16197       141  SAPC      C313            9.7093631247       26.8053097407       -5.0522269406  MEMB      141             0.0000000000
     16198       141  SAPC      H13X            9.9360298931       25.7201979383       -5.1262238903  MEMB      141             0.0000000000
     16199       141  SAPC      H13Y            8.6229151053       27.0279466882       -4.9860135797  MEMB      141             0.0000000000
     16200       141  SAPC      C314           10.3624805726       27.3806640342       -3.7869927418  MEMB      141             0.0000000000
     16201       141  SAPC      H14X           10.1945699548       28.4762846551       -3.8627731201  MEMB      141             0.0000000000
     16202       141  SAPC      H14Y           11.4526648881       27.1945535560       -3.8927374051  MEMB      141             0.0000000000
     16203       141  SAPC      C315            9.6813749949       26.8310599931       -2.5187283766  MEMB      141             0.0000000000
     16204       141  SAPC      H15X            9.7430649293       25.7463397318       -2.7508846178  MEMB      141             0.0000000000
     16205       141  SAPC      H15Y            8.6643352178       27.2743637070       -2.4601364579  MEMB      141             0.0000000000
     16206       141  SAPC      C316           10.3794224092       27.2165925247       -1.2379441203  MEMB      141             0.0000000000
     16207       141  SAPC      H16X           10.4729858240       28.3142054027       -1.0936766156  MEMB      141             0.0000000000
     16208       141  SAPC      H16Y           11.4031277540       26.8091285618       -1.3804974903  MEMB      141             0.0000000000
     16209       141  SAPC      C317            9.8787069140       26.5857884389        0.0960188032  MEMB      141             0.0000000000
     16210       141  SAPC      H17X            8.9111656336       27.1204590005        0.2069788092  MEMB      141             0.0000000000
     16211       141  SAPC      H17Y           10.4903337432       26.8626467863        0.9812225436  MEMB      141             0.0000000000
     16212       141  SAPC      C318            9.8887829965       25.1321454842        0.1828875719  MEMB      141             0.0000000000
     16213       141  SAPC      H18X           10.9680833414       24.8853384126        0.0905940272  MEMB      141             0.0000000000
     16214       141  SAPC      H18Y            9.3775842572       24.7173282481       -0.7120556061  MEMB      141             0.0000000000
     16215       141  SAPC      H18Z            9.4055881870       24.7846894814        1.1210348852  MEMB      141             0.0000000000
     16216       142  SAPS      N             -19.3144712974      -23.9319598203      -18.4969428303  MEMB      142             0.0000000000
     16217       142  SAPS      HN1           -19.3056971023      -24.9121112939      -18.8445432190  MEMB      142             0.0000000000
     16218       142  SAPS      HN2           -19.1230213614      -24.0255956012      -17.4790137715  MEMB      142             0.0000000000
     16219       142  SAPS      HN3           -20.2288721018      -23.4789581867      -18.6975929423  MEMB      142             0.0000000000
     16220       142  SAPS      C12           -18.2764666455      -23.0591981374      -19.1662399281  MEMB      142             0.0000000000
     16221       142  SAPS      H12A          -18.6821539726      -22.2467783436      -19.7508696084  MEMB      142             0.0000000000
     16222       142  SAPS      C13           -17.1752790950      -22.5471767848      -18.2507206732  MEMB      142             0.0000000000
     16223       142  SAPS      O13A          -16.9405598623      -22.9396221078      -17.0793593704  MEMB      142             0.0000000000
     16224       142  SAPS      O13B          -16.3699184726      -21.8060705760      -18.8911769081  MEMB      142             0.0000000000
     16225       142  SAPS      C11           -17.5562614767      -24.0407265240      -20.1931975763  MEMB      142             0.0000000000
     16226       142  SAPS      H11A          -18.2561978824      -24.6209624531      -20.8317399079  MEMB      142             0.0000000000
     16227       142  SAPS      H11B          -17.0480525010      -24.8924261655      -19.6925457097  MEMB      142             0.0000000000
     16228       142  SAPS      P             -15.2897908923      -23.9804525595      -21.6321275460  MEMB      142             0.0000000000
     16229       142  SAPS      O13           -15.8486135621      -24.8073736184      -22.7273918088  MEMB      142             0.0000000000
     16230       142  SAPS      O14           -14.2737185676      -22.9809779440      -22.0301394754  MEMB      142             0.0000000000
     16231       142  SAPS      O12           -16.5722653652      -23.3011870982      -21.0045345253  MEMB      142             0.0000000000
     16232       142  SAPS      O11           -14.7631783682      -25.0136633261      -20.5281693076  MEMB      142             0.0000000000
     16233       142  SAPS      C1            -14.0449003131      -24.4475375085      -19.4053233437  MEMB      142             0.0000000000
     16234       142  SAPS      HA            -13.1351759982      -23.9468281992      -19.8003080255  MEMB      142             0.0000000000
     16235       142  SAPS      HB            -14.6203389065      -23.6706626551      -18.8579142003  MEMB      142             0.0000000000
     16236       142  SAPS      C2            -13.7266208442      -25.5493972730      -18.3607619387  MEMB      142             0.0000000000
     16237       142  SAPS      HS            -13.1840758227      -26.2879869204      -18.9888158060  MEMB      142             0.0000000000
     16238       142  SAPS      O21           -14.8387082950      -26.0149825731      -17.6596696797  MEMB      142             0.0000000000
     16239       142  SAPS      C21           -15.5679279536      -26.9937977101      -18.2061464941  MEMB      142             0.0000000000
     16240       142  SAPS      O22           -15.3065183497      -27.6223184659      -19.2169346372  MEMB      142             0.0000000000
     16241       142  SAPS      C22           -16.8329765758      -27.1850755836      -17.4366072121  MEMB      142             0.0000000000
     16242       142  SAPS      H2R           -17.2848448481      -26.2047880651      -17.1736010971  MEMB      142             0.0000000000
     16243       142  SAPS      H2S           -17.5089296596      -27.6598584415      -18.1795672097  MEMB      142             0.0000000000
     16244       142  SAPS      C3            -12.6992294439      -24.9882402493      -17.3298799891  MEMB      142             0.0000000000
     16245       142  SAPS      HX            -11.8317803785      -24.7443561811      -17.9797827836  MEMB      142             0.0000000000
     16246       142  SAPS      HY            -12.3260813251      -25.7583983388      -16.6214041469  MEMB      142             0.0000000000
     16247       142  SAPS      O31           -13.3702202666      -23.8835974419      -16.6548080762  MEMB      142             0.0000000000
     16248       142  SAPS      C31           -12.6426009850      -23.5250652061      -15.5187987134  MEMB      142             0.0000000000
     16249       142  SAPS      O32           -11.5602712182      -23.9380891397      -15.1925841397  MEMB      142             0.0000000000
     16250       142  SAPS      C32           -13.2889437059      -22.2475695503      -15.1170573019  MEMB      142             0.0000000000
     16251       142  SAPS      H2X           -14.3982185470      -22.2253855345      -15.1748349711  MEMB      142             0.0000000000
     16252       142  SAPS      H2Y           -12.7409935403      -21.4114841210      -15.6018589234  MEMB      142             0.0000000000
     16253       142  SAPS      C23           -16.5253375091      -28.1416296294      -16.2581890214  MEMB      142             0.0000000000
     16254       142  SAPS      H3R           -16.1542825651      -29.0203729454      -16.8277931367  MEMB      142             0.0000000000
     16255       142  SAPS      H3S           -17.5113717239      -28.4259570589      -15.8324946069  MEMB      142             0.0000000000
     16256       142  SAPS      C24           -15.6400882779      -27.6415762317      -15.1004693525  MEMB      142             0.0000000000
     16257       142  SAPS      H4R           -14.6214637970      -27.4447759784      -15.4979549324  MEMB      142             0.0000000000
     16258       142  SAPS      H4S           -15.5700889334      -28.5489094803      -14.4631570238  MEMB      142             0.0000000000
     16259       142  SAPS      C25           -16.1786411389      -26.4249774004      -14.4088287102  MEMB      142             0.0000000000
     16260       142  SAPS      H5R           -15.6785312149      -25.4967890560      -14.7224468471  MEMB      142             0.0000000000
     16261       142  SAPS      C26           -17.0566191685      -26.3827600711      -13.3912686495  MEMB      142             0.0000000000
     16262       142  SAPS      H6R           -17.1441425321      -25.3639751130      -12.9857846118  MEMB      142             0.0000000000
     16263       142  SAPS      C27           -17.8050954685      -27.4649459100      -12.6313580971  MEMB      142             0.0000000000
     16264       142  SAPS      H7R           -17.5046524028      -28.5091466484      -12.8630917254  MEMB      142             0.0000000000
     16265       142  SAPS      H7S           -18.8509750036      -27.3970190319      -12.9999275728  MEMB      142             0.0000000000
     16266       142  SAPS      C28           -17.8281761272      -27.3585392503      -11.1123471152  MEMB      142             0.0000000000
     16267       142  SAPS      H8R           -17.1290180642      -27.9444693166      -10.4976407919  MEMB      142             0.0000000000
     16268       142  SAPS      C29           -18.6971525132      -26.5492780758      -10.3997734760  MEMB      142             0.0000000000
     16269       142  SAPS      H9R           -18.5125941415      -26.4656327751       -9.3185981097  MEMB      142             0.0000000000
     16270       142  SAPS      C210          -19.7413333898      -25.6430504420      -10.9979526475  MEMB      142             0.0000000000
     16271       142  SAPS      H10R          -20.7459035690      -25.9862781213      -10.6703014445  MEMB      142             0.0000000000
     16272       142  SAPS      H10S          -19.7968331381      -25.8621045099      -12.0857287017  MEMB      142             0.0000000000
     16273       142  SAPS      C211          -19.6902448718      -24.1482280111      -10.9305245851  MEMB      142             0.0000000000
     16274       142  SAPS      H11R          -20.6509048157      -23.6998468110      -11.2239297894  MEMB      142             0.0000000000
     16275       142  SAPS      C212          -18.6024541317      -23.3556487639      -10.6430241838  MEMB      142             0.0000000000
     16276       142  SAPS      H12R          -18.7390575330      -22.2658560834      -10.7037827708  MEMB      142             0.0000000000
     16277       142  SAPS      C213          -17.1089494596      -23.6723998518      -10.2464577882  MEMB      142             0.0000000000
     16278       142  SAPS      H13R          -16.5696111515      -22.7393800480      -10.5164747975  MEMB      142             0.0000000000
     16279       142  SAPS      H13S          -16.6206289964      -24.3681150424      -10.9618904176  MEMB      142             0.0000000000
     16280       142  SAPS      C214          -16.9320627669      -24.0299061985       -8.7854746435  MEMB      142             0.0000000000
     16281       142  SAPS      H14R          -16.5566285505      -25.0621058600       -8.7253667189  MEMB      142             0.0000000000
     16282       142  SAPS      C215          -17.1385090855      -23.2121906673       -7.7448900712  MEMB      142             0.0000000000
     16283       142  SAPS      H15R          -16.9603737198      -23.5955468027       -6.7293585503  MEMB      142             0.0000000000
     16284       142  SAPS      C216          -17.5225184922      -21.7653020221       -7.7247786559  MEMB      142             0.0000000000
     16285       142  SAPS      H16R          -17.7068433062      -21.2686109338       -8.7013251109  MEMB      142             0.0000000000
     16286       142  SAPS      H16S          -16.7136761152      -21.1031602744       -7.3483968256  MEMB      142             0.0000000000
     16287       142  SAPS      C217          -18.7745615733      -21.4956805884       -6.8939615320  MEMB      142             0.0000000000
     16288       142  SAPS      H17R          -19.7513008819      -21.9254680086       -7.2031283462  MEMB      142             0.0000000000
     16289       142  SAPS      H17S          -18.8777983307      -20.3932862270       -6.9855586917  MEMB      142             0.0000000000
     16290       142  SAPS      C218          -18.5999696470      -21.9056856776       -5.3902990575  MEMB      142             0.0000000000
     16291       142  SAPS      H18R          -18.4769932028      -23.0094550938       -5.3604466840  MEMB      142             0.0000000000
     16292       142  SAPS      H18S          -19.5744063074      -21.7752311248       -4.8728288012  MEMB      142             0.0000000000
     16293       142  SAPS      C219          -17.4198381100      -21.2733693138       -4.6066363348  MEMB      142             0.0000000000
     16294       142  SAPS      H19R          -17.6593304941      -20.2325227916       -4.3006893712  MEMB      142             0.0000000000
     16295       142  SAPS      H19S          -16.4263897604      -21.2344639415       -5.1024867723  MEMB      142             0.0000000000
     16296       142  SAPS      C220          -17.2756337253      -21.9841331890       -3.1910648716  MEMB      142             0.0000000000
     16297       142  SAPS      H20R          -18.2211523749      -22.1107898812       -2.6216142762  MEMB      142             0.0000000000
     16298       142  SAPS      H20S          -16.5094886346      -21.4586751036       -2.5817729955  MEMB      142             0.0000000000
     16299       142  SAPS      H20T          -16.9772304135      -23.0359492699       -3.3884465057  MEMB      142             0.0000000000
     16300       142  SAPS      C33           -13.1314815242      -22.1854918153      -13.5465832295  MEMB      142             0.0000000000
     16301       142  SAPS      H3X           -12.0896130260      -22.4788374441      -13.2960256193  MEMB      142             0.0000000000
     16302       142  SAPS      H3Y           -13.7901334467      -22.9688009786      -13.1142347608  MEMB      142             0.0000000000
     16303       142  SAPS      C34           -13.4801477277      -20.8625601389      -12.8685349951  MEMB      142             0.0000000000
     16304       142  SAPS      H4X           -14.4697542788      -20.6010187128      -13.3005026136  MEMB      142             0.0000000000
     16305       142  SAPS      H4Y           -12.8023714133      -20.0969005493      -13.3029378426  MEMB      142             0.0000000000
     16306       142  SAPS      C35           -13.6661996868      -20.8071348864      -11.3404422648  MEMB      142             0.0000000000
     16307       142  SAPS      H5X           -14.7219785927      -21.0645859816      -11.1094201246  MEMB      142             0.0000000000
     16308       142  SAPS      H5Y           -13.4314496952      -19.7631290742      -11.0416695143  MEMB      142             0.0000000000
     16309       142  SAPS      C36           -12.7330481639      -21.6217323978      -10.4059321868  MEMB      142             0.0000000000
     16310       142  SAPS      H6X           -11.6829977154      -21.3459384190      -10.6418393063  MEMB      142             0.0000000000
     16311       142  SAPS      H6Y           -12.9160324584      -22.6541055941      -10.7734148244  MEMB      142             0.0000000000
     16312       142  SAPS      C37           -12.9134321106      -21.4499512164       -8.8307408526  MEMB      142             0.0000000000
     16313       142  SAPS      H7X           -13.9489932901      -21.1985652639       -8.5165121431  MEMB      142             0.0000000000
     16314       142  SAPS      H7Y           -12.4029444953      -20.4662320693       -8.7531530087  MEMB      142             0.0000000000
     16315       142  SAPS      C38           -12.1364287920      -22.5334757106       -8.1730602853  MEMB      142             0.0000000000
     16316       142  SAPS      H8X           -12.0023578362      -22.3391671960       -7.0874316229  MEMB      142             0.0000000000
     16317       142  SAPS      H8Y           -11.0997711831      -22.6236269860       -8.5623344939  MEMB      142             0.0000000000
     16318       142  SAPS      C39           -12.9462701408      -23.9158651736       -8.1188727763  MEMB      142             0.0000000000
     16319       142  SAPS      H9X           -13.0425232768      -24.2450074825       -9.1756231307  MEMB      142             0.0000000000
     16320       142  SAPS      H9Y           -13.9880400431      -23.6362517818       -7.8526907127  MEMB      142             0.0000000000
     16321       142  SAPS      C310          -12.4990639188      -25.0061893125       -7.1843212115  MEMB      142             0.0000000000
     16322       142  SAPS      H10X          -11.4111782933      -25.2180905154       -7.2612847307  MEMB      142             0.0000000000
     16323       142  SAPS      H10Y          -12.9141798452      -25.9759330265       -7.5330285148  MEMB      142             0.0000000000
     16324       142  SAPS      C311          -12.8302436221      -24.7132254147       -5.6593042951  MEMB      142             0.0000000000
     16325       142  SAPS      H11X          -12.0724915960      -23.9386937414       -5.4138802058  MEMB      142             0.0000000000
     16326       142  SAPS      H11Y          -12.5363887932      -25.7121284708       -5.2717950489  MEMB      142             0.0000000000
     16327       142  SAPS      C312          -14.2836118734      -24.3090282151       -5.2190031036  MEMB      142             0.0000000000
     16328       142  SAPS      H12X          -14.7458454037      -23.8402659958       -6.1139463023  MEMB      142             0.0000000000
     16329       142  SAPS      H12Y          -14.2607027273      -23.6007194492       -4.3633781550  MEMB      142             0.0000000000
     16330       142  SAPS      C313          -15.1273206613      -25.3990473044       -4.6140404589  MEMB      142             0.0000000000
     16331       142  SAPS      H13X          -15.1960261115      -26.2568433709       -5.3167392000  MEMB      142             0.0000000000
     16332       142  SAPS      H13Y          -16.0969941871      -24.8569725262       -4.5995743114  MEMB      142             0.0000000000
     16333       142  SAPS      C314          -14.8091519407      -25.8310406500       -3.2346565763  MEMB      142             0.0000000000
     16334       142  SAPS      H14X          -14.7247682573      -24.9774308121       -2.5285755967  MEMB      142             0.0000000000
     16335       142  SAPS      H14Y          -13.8562738610      -26.4019652096       -3.2149177795  MEMB      142             0.0000000000
     16336       142  SAPS      C315          -15.8651728656      -26.7493574309       -2.6981150445  MEMB      142             0.0000000000
     16337       142  SAPS      H15X          -15.5953558323      -27.1185138920       -1.6855725993  MEMB      142             0.0000000000
     16338       142  SAPS      H15Y          -15.9686452332      -27.6323116656       -3.3644533846  MEMB      142             0.0000000000
     16339       142  SAPS      C316          -17.3536337715      -26.2614264204       -2.5767142912  MEMB      142             0.0000000000
     16340       142  SAPS      H16X          -17.7005685814      -26.1294665634       -3.6238731572  MEMB      142             0.0000000000
     16341       142  SAPS      H16Y          -17.5075904289      -25.3451410399       -1.9675832105  MEMB      142             0.0000000000
     16342       142  SAPS      C317          -18.2660676519      -27.3049739825       -1.9590203627  MEMB      142             0.0000000000
     16343       142  SAPS      H17X          -17.9633563347      -27.3844825548       -0.8930174240  MEMB      142             0.0000000000
     16344       142  SAPS      H17Y          -18.1823606146      -28.2992885143       -2.4475421471  MEMB      142             0.0000000000
     16345       142  SAPS      C318          -19.7547611724      -26.9449936261       -1.9282838761  MEMB      142             0.0000000000
     16346       142  SAPS      H18X          -20.2301480062      -26.8478010929       -2.9277233025  MEMB      142             0.0000000000
     16347       142  SAPS      H18Y          -19.8300453504      -25.9566059803       -1.4265429107  MEMB      142             0.0000000000
     16348       142  SAPS      H18Z          -20.2913134638      -27.6167258076       -1.2245721536  MEMB      142             0.0000000000
     16349       143  SLPC      N             -10.6783659692      -28.8260282075      -18.0064558449  MEMB      143             0.0000000000
     16350       143  SLPC      C13           -11.3375268479      -27.6608094222      -18.7162632997  MEMB      143             0.0000000000
     16351       143  SLPC      H13A          -11.3490762253      -26.7714234164      -18.1036792909  MEMB      143             0.0000000000
     16352       143  SLPC      H13B          -10.9440296064      -27.5823308532      -19.7189603323  MEMB      143             0.0000000000
     16353       143  SLPC      H13C          -12.3972031694      -27.8469630835      -18.8102473518  MEMB      143             0.0000000000
     16354       143  SLPC      C14           -11.0492043821      -30.0844362292      -18.8572498830  MEMB      143             0.0000000000
     16355       143  SLPC      H14A          -12.0712385871      -30.1248879176      -19.2039627845  MEMB      143             0.0000000000
     16356       143  SLPC      H14B          -10.4588158865      -30.1912328637      -19.7552678153  MEMB      143             0.0000000000
     16357       143  SLPC      H14C          -10.8923852529      -30.9860744762      -18.2837899091  MEMB      143             0.0000000000
     16358       143  SLPC      C15           -11.2202710402      -29.0122231366      -16.6448844191  MEMB      143             0.0000000000
     16359       143  SLPC      H15A          -10.8010268742      -28.2088078684      -16.0573827239  MEMB      143             0.0000000000
     16360       143  SLPC      H15B          -12.2872586558      -28.9183992779      -16.5065567015  MEMB      143             0.0000000000
     16361       143  SLPC      H15C          -10.9173581095      -30.0197832281      -16.4010268974  MEMB      143             0.0000000000
     16362       143  SLPC      C12            -9.1679841329      -28.6170448961      -17.9496019452  MEMB      143             0.0000000000
     16363       143  SLPC      H12A           -8.9068825250      -28.5072609262      -18.9917983376  MEMB      143             0.0000000000
     16364       143  SLPC      H12B           -8.6926482962      -29.4844595390      -17.5159575586  MEMB      143             0.0000000000
     16365       143  SLPC      C11            -8.5844711705      -27.5048250756      -17.0230141234  MEMB      143             0.0000000000
     16366       143  SLPC      H11A           -7.5146013614      -27.3885001025      -17.2989998768  MEMB      143             0.0000000000
     16367       143  SLPC      H11B           -8.7849065658      -27.9918257306      -16.0447620574  MEMB      143             0.0000000000
     16368       143  SLPC      P              -9.3920776746      -25.3103107158      -15.9860017708  MEMB      143             0.0000000000
     16369       143  SLPC      O13            -9.4586350165      -23.9013677123      -16.3083538534  MEMB      143             0.0000000000
     16370       143  SLPC      O14           -10.4657392567      -25.8897203289      -15.0971070284  MEMB      143             0.0000000000
     16371       143  SLPC      O12            -9.2592443086      -26.2542885688      -17.2730084831  MEMB      143             0.0000000000
     16372       143  SLPC      O11            -8.0900495588      -25.6445781893      -15.1380593522  MEMB      143             0.0000000000
     16373       143  SLPC      C1             -6.8554059387      -25.1206232540      -15.6520698340  MEMB      143             0.0000000000
     16374       143  SLPC      HA             -6.5171883850      -25.9536586159      -16.3047429022  MEMB      143             0.0000000000
     16375       143  SLPC      HB             -6.9709423783      -24.2010549780      -16.2647414649  MEMB      143             0.0000000000
     16376       143  SLPC      C2             -5.8644477812      -24.8519658590      -14.4995167367  MEMB      143             0.0000000000
     16377       143  SLPC      HS             -4.8003010336      -25.0842510578      -14.7185054634  MEMB      143             0.0000000000
     16378       143  SLPC      O21            -6.1733138241      -25.6764854690      -13.3832945353  MEMB      143             0.0000000000
     16379       143  SLPC      C21            -5.8264780843      -26.9738288691      -13.5618647946  MEMB      143             0.0000000000
     16380       143  SLPC      O22            -5.3718878438      -27.4564432989      -14.5561983115  MEMB      143             0.0000000000
     16381       143  SLPC      C22            -6.0610453830      -27.7330472113      -12.2280388145  MEMB      143             0.0000000000
     16382       143  SLPC      H2R            -6.2236516513      -28.8180787993      -12.4029294807  MEMB      143             0.0000000000
     16383       143  SLPC      H2S            -5.1003824742      -27.6966734504      -11.6711500428  MEMB      143             0.0000000000
     16384       143  SLPC      C3             -5.9816564716      -23.3093799675      -14.0114006274  MEMB      143             0.0000000000
     16385       143  SLPC      HX             -5.9916443402      -22.7335373639      -14.9614673474  MEMB      143             0.0000000000
     16386       143  SLPC      HY             -5.1537574432      -23.0747962122      -13.3086379482  MEMB      143             0.0000000000
     16387       143  SLPC      O31            -7.3493241326      -23.0769654388      -13.5282105588  MEMB      143             0.0000000000
     16388       143  SLPC      C31            -7.7280349740      -23.4348967905      -12.2435265702  MEMB      143             0.0000000000
     16389       143  SLPC      O32            -6.9888646681      -23.8065506678      -11.3700683418  MEMB      143             0.0000000000
     16390       143  SLPC      C32            -9.2050010820      -23.1969648788      -12.0104345042  MEMB      143             0.0000000000
     16391       143  SLPC      H2X            -9.6676635504      -23.0233170619      -13.0054778105  MEMB      143             0.0000000000
     16392       143  SLPC      H2Y            -9.3800871606      -22.3425429380      -11.3222276567  MEMB      143             0.0000000000
     16393       143  SLPC      C23            -7.3773867072      -27.3114027594      -11.5238876711  MEMB      143             0.0000000000
     16394       143  SLPC      H3R            -8.0752900050      -27.0639261233      -12.3521435695  MEMB      143             0.0000000000
     16395       143  SLPC      H3S            -7.2324235476      -26.3572603825      -10.9735068040  MEMB      143             0.0000000000
     16396       143  SLPC      C24            -7.9062217274      -28.4152852788      -10.5863586734  MEMB      143             0.0000000000
     16397       143  SLPC      H4R            -7.1321557962      -28.7258614836       -9.8524065172  MEMB      143             0.0000000000
     16398       143  SLPC      H4S            -8.0751035565      -29.3222818258      -11.2053553332  MEMB      143             0.0000000000
     16399       143  SLPC      C25            -9.1964946691      -28.0840093707       -9.8462635696  MEMB      143             0.0000000000
     16400       143  SLPC      H5R            -9.9670057938      -28.1454496977      -10.6442978088  MEMB      143             0.0000000000
     16401       143  SLPC      H5S            -9.2319145836      -27.0543401659       -9.4305138509  MEMB      143             0.0000000000
     16402       143  SLPC      C26            -9.4236400480      -28.9764392154       -8.6568067739  MEMB      143             0.0000000000
     16403       143  SLPC      H6R            -8.9913226792      -29.9929339131       -8.7758076409  MEMB      143             0.0000000000
     16404       143  SLPC      H6S           -10.5269236484      -29.0898364732       -8.5917881230  MEMB      143             0.0000000000
     16405       143  SLPC      C27            -8.9910369472      -28.3771220662       -7.3325678357  MEMB      143             0.0000000000
     16406       143  SLPC      H7R            -9.4306918724      -29.0068759634       -6.5298006637  MEMB      143             0.0000000000
     16407       143  SLPC      H7S            -9.4740080613      -27.3994793288       -7.1197897929  MEMB      143             0.0000000000
     16408       143  SLPC      C28            -7.4692408981      -28.1056196784       -7.2568949105  MEMB      143             0.0000000000
     16409       143  SLPC      H8R            -7.2338494505      -27.3658354822       -8.0516479794  MEMB      143             0.0000000000
     16410       143  SLPC      H8S            -6.9244700207      -29.0489980569       -7.4750298501  MEMB      143             0.0000000000
     16411       143  SLPC      C29            -7.0312795664      -27.5651967424       -5.8965374512  MEMB      143             0.0000000000
     16412       143  SLPC      H9R            -7.1010531215      -26.4698643949       -5.8231980079  MEMB      143             0.0000000000
     16413       143  SLPC      C210           -6.5806100560      -28.1730046026       -4.7714555914  MEMB      143             0.0000000000
     16414       143  SLPC      H10R           -6.3314522567      -27.5530551274       -3.8976235579  MEMB      143             0.0000000000
     16415       143  SLPC      C211           -6.4842654406      -29.6952623411       -4.6569877595  MEMB      143             0.0000000000
     16416       143  SLPC      H11R           -7.2681620613      -30.2739417966       -5.1908017088  MEMB      143             0.0000000000
     16417       143  SLPC      H11S           -6.7964493050      -29.9244309876       -3.6156695997  MEMB      143             0.0000000000
     16418       143  SLPC      C212           -5.1614201351      -30.3026260157       -5.0309997704  MEMB      143             0.0000000000
     16419       143  SLPC      H12R           -4.9606012485      -30.4374141495       -6.1040820024  MEMB      143             0.0000000000
     16420       143  SLPC      C213           -4.2644468445      -30.8565428074       -4.1994556051  MEMB      143             0.0000000000
     16421       143  SLPC      H13R           -3.3820701480      -31.2198740733       -4.7466315545  MEMB      143             0.0000000000
     16422       143  SLPC      C214           -4.3197828653      -31.0013324155       -2.7274838403  MEMB      143             0.0000000000
     16423       143  SLPC      H14R           -3.5048063365      -31.6582904561       -2.3552733033  MEMB      143             0.0000000000
     16424       143  SLPC      H14S           -5.2433211391      -31.5346620023       -2.4161032658  MEMB      143             0.0000000000
     16425       143  SLPC      C215           -3.9881727150      -29.6454545853       -2.0816422959  MEMB      143             0.0000000000
     16426       143  SLPC      H15R           -4.8868274389      -29.0216846725       -2.2756840823  MEMB      143             0.0000000000
     16427       143  SLPC      H15S           -3.1178834893      -29.2432402522       -2.6430163772  MEMB      143             0.0000000000
     16428       143  SLPC      C216           -3.6269352279      -29.6312866302       -0.6115292600  MEMB      143             0.0000000000
     16429       143  SLPC      H16R           -2.5872288599      -29.9969476014       -0.4714429037  MEMB      143             0.0000000000
     16430       143  SLPC      H16S           -4.3431847470      -30.3063345364       -0.0961475230  MEMB      143             0.0000000000
     16431       143  SLPC      C217           -3.8842958761      -28.2904763942       -0.0301063923  MEMB      143             0.0000000000
     16432       143  SLPC      H17R           -3.5818342869      -28.3792450971        1.0352375111  MEMB      143             0.0000000000
     16433       143  SLPC      H17S           -4.9808496772      -28.1123565352       -0.0172985763  MEMB      143             0.0000000000
     16434       143  SLPC      C218           -3.2015557856      -27.0276188665       -0.6318443870  MEMB      143             0.0000000000
     16435       143  SLPC      H18R           -3.4303064729      -26.8095792576       -1.6969514928  MEMB      143             0.0000000000
     16436       143  SLPC      H18S           -2.1275211629      -27.3069005312       -0.5791929030  MEMB      143             0.0000000000
     16437       143  SLPC      H18T           -3.4997971520      -26.0617076674       -0.1709884763  MEMB      143             0.0000000000
     16438       143  SLPC      C33            -9.8532295600      -24.4911852504      -11.4897262635  MEMB      143             0.0000000000
     16439       143  SLPC      H3X            -9.6219659317      -24.8486061745      -10.4635255954  MEMB      143             0.0000000000
     16440       143  SLPC      H3Y            -9.6654627098      -25.3142306158      -12.2119872711  MEMB      143             0.0000000000
     16441       143  SLPC      C34           -11.3453520215      -24.3080478936      -11.2696571868  MEMB      143             0.0000000000
     16442       143  SLPC      H4X           -11.8330337711      -23.8850474856      -12.1738463955  MEMB      143             0.0000000000
     16443       143  SLPC      H4Y           -11.5803269261      -23.6369702108      -10.4159810806  MEMB      143             0.0000000000
     16444       143  SLPC      C35           -12.1303080343      -25.6591045944      -10.8867881191  MEMB      143             0.0000000000
     16445       143  SLPC      H5X           -11.8293307692      -26.6249103538      -11.3460843372  MEMB      143             0.0000000000
     16446       143  SLPC      H5Y           -13.1101116983      -25.5274770680      -11.3937200492  MEMB      143             0.0000000000
     16447       143  SLPC      C36           -12.5114768658      -25.8006369427       -9.3751305483  MEMB      143             0.0000000000
     16448       143  SLPC      H6X           -12.9972538885      -24.8381640838       -9.1068244651  MEMB      143             0.0000000000
     16449       143  SLPC      H6Y           -11.5659329518      -26.0603402557       -8.8528066421  MEMB      143             0.0000000000
     16450       143  SLPC      C37           -13.5180732530      -26.8930911038       -8.9184596767  MEMB      143             0.0000000000
     16451       143  SLPC      H7X           -13.0027695687      -27.8344001820       -9.2060714829  MEMB      143             0.0000000000
     16452       143  SLPC      H7Y           -14.3898216408      -26.9692185248       -9.6029883517  MEMB      143             0.0000000000
     16453       143  SLPC      C38           -13.8772514618      -26.8661933665       -7.5247241388  MEMB      143             0.0000000000
     16454       143  SLPC      H8X           -14.8419512991      -27.4020205867       -7.3960206072  MEMB      143             0.0000000000
     16455       143  SLPC      H8Y           -14.0547696451      -25.8489106883       -7.1149145196  MEMB      143             0.0000000000
     16456       143  SLPC      C39           -12.8668829681      -27.5443583871       -6.6103636142  MEMB      143             0.0000000000
     16457       143  SLPC      H9X           -11.8818466430      -27.0359828089       -6.6850541130  MEMB      143             0.0000000000
     16458       143  SLPC      H9Y           -12.7522103799      -28.5602952149       -7.0451550333  MEMB      143             0.0000000000
     16459       143  SLPC      C310          -13.4182572311      -27.6605684004       -5.1727989976  MEMB      143             0.0000000000
     16460       143  SLPC      H10X          -12.8393346025      -28.4558368409       -4.6563523244  MEMB      143             0.0000000000
     16461       143  SLPC      H10Y          -14.4715321235      -28.0140276365       -5.1727749094  MEMB      143             0.0000000000
     16462       143  SLPC      C311          -13.3617011219      -26.4245487459       -4.3628813448  MEMB      143             0.0000000000
     16463       143  SLPC      H11X          -13.7944164275      -26.5928064386       -3.3535401834  MEMB      143             0.0000000000
     16464       143  SLPC      H11Y          -13.9238692085      -25.6317496214       -4.9011729072  MEMB      143             0.0000000000
     16465       143  SLPC      C312          -11.9757918626      -25.7458387501       -4.2297624880  MEMB      143             0.0000000000
     16466       143  SLPC      H12X          -12.1743125756      -24.7405542124       -3.8004446378  MEMB      143             0.0000000000
     16467       143  SLPC      H12Y          -11.4488441739      -25.4935516008       -5.1747483026  MEMB      143             0.0000000000
     16468       143  SLPC      C313          -11.0413186120      -26.6015450191       -3.3449859807  MEMB      143             0.0000000000
     16469       143  SLPC      H13X          -10.7767794565      -27.5586961958       -3.8431844954  MEMB      143             0.0000000000
     16470       143  SLPC      H13Y          -11.4755462370      -26.8054255016       -2.3428885546  MEMB      143             0.0000000000
     16471       143  SLPC      C314           -9.7194880883      -25.9089371979       -3.1033882447  MEMB      143             0.0000000000
     16472       143  SLPC      H14X           -9.4664463083      -25.3065907031       -4.0019819584  MEMB      143             0.0000000000
     16473       143  SLPC      H14Y           -8.9564289548      -26.7108870434       -3.0088486439  MEMB      143             0.0000000000
     16474       143  SLPC      C315           -9.7704524957      -24.9746500199       -1.8914039105  MEMB      143             0.0000000000
     16475       143  SLPC      H15X           -9.7598527557      -25.6820227927       -1.0347637907  MEMB      143             0.0000000000
     16476       143  SLPC      H15Y          -10.7765952083      -24.5336780519       -1.7254473644  MEMB      143             0.0000000000
     16477       143  SLPC      C316           -8.6510404822      -23.9396965388       -1.8225277121  MEMB      143             0.0000000000
     16478       143  SLPC      H16X           -8.6295322839      -23.6245243304       -0.7573866097  MEMB      143             0.0000000000
     16479       143  SLPC      H16Y           -8.8393075653      -23.0387269719       -2.4447246988  MEMB      143             0.0000000000
     16480       143  SLPC      C317           -7.2801815191      -24.5203748391       -2.1140945102  MEMB      143             0.0000000000
     16481       143  SLPC      H17X           -6.5741587152      -23.6636661616       -2.0704656689  MEMB      143             0.0000000000
     16482       143  SLPC      H17Y           -7.2914784315      -25.0113841310       -3.1106397452  MEMB      143             0.0000000000
     16483       143  SLPC      C318           -6.6803665660      -25.4899209651       -1.0717039293  MEMB      143             0.0000000000
     16484       143  SLPC      H18X           -5.6520153165      -25.8050786127       -1.3500752073  MEMB      143             0.0000000000
     16485       143  SLPC      H18Y           -7.3085183361      -26.4062813256       -1.0662349695  MEMB      143             0.0000000000
     16486       143  SLPC      H18Z           -6.5108094499      -25.0127677326       -0.0828182800  MEMB      143             0.0000000000
     16487       144  CHL1      C3             29.6803571059       -0.8276586156      -17.3198600000  MEMB      144             0.0000000000
     16488       144  CHL1      H3             28.6078686441       -0.5385854809      -17.3427200000  MEMB      144             0.0000000000
     16489       144  CHL1      O3             30.1175368941       -1.1229400584      -18.6801400000  MEMB      144             0.0000000000
     16490       144  CHL1      H3'            31.0566087971       -0.9672840698      -18.5555900000  MEMB      144             0.0000000000
     16491       144  CHL1      C4             30.5015006822        0.3912778329      -16.7964700000  MEMB      144             0.0000000000
     16492       144  CHL1      H4A            31.5902668571        0.1968559584      -16.9018500000  MEMB      144             0.0000000000
     16493       144  CHL1      H4B            30.2105921944        1.3097364908      -17.3497500000  MEMB      144             0.0000000000
     16494       144  CHL1      C5             30.3159587087        0.5988144729      -15.3257600000  MEMB      144             0.0000000000
     16495       144  CHL1      C6             30.0400636066        1.8278328725      -14.8344000000  MEMB      144             0.0000000000
     16496       144  CHL1      H6             29.9170091163        2.6742918211      -15.5260400000  MEMB      144             0.0000000000
     16497       144  CHL1      C7             29.7092792999        2.0507668619      -13.3907100000  MEMB      144             0.0000000000
     16498       144  CHL1      H7A            30.1852681241        3.0020357811      -13.0700300000  MEMB      144             0.0000000000
     16499       144  CHL1      H7B            28.6018932337        2.0520702274      -13.3012100000  MEMB      144             0.0000000000
     16500       144  CHL1      C8             30.1771876626        0.9763928876      -12.4454600000  MEMB      144             0.0000000000
     16501       144  CHL1      H8             31.2708183104        1.1466404210      -12.3489600000  MEMB      144             0.0000000000
     16502       144  CHL1      C14            29.5824759406        1.2285953648      -11.1056000000  MEMB      144             0.0000000000
     16503       144  CHL1      H14            28.4980112880        1.0197304594      -11.2265900000  MEMB      144             0.0000000000
     16504       144  CHL1      C15            29.7460038664        2.6413758399      -10.4558100000  MEMB      144             0.0000000000
     16505       144  CHL1      H15A           30.8174740927        2.8854544555      -10.6192000000  MEMB      144             0.0000000000
     16506       144  CHL1      H15B           29.0528973221        3.4445987217      -10.7855900000  MEMB      144             0.0000000000
     16507       144  CHL1      C16            29.4420813719        2.3451213181       -8.9665500000  MEMB      144             0.0000000000
     16508       144  CHL1      H16A           30.3065548031        2.7504717584       -8.3984800000  MEMB      144             0.0000000000
     16509       144  CHL1      H16B           28.5466184656        2.9106719211       -8.6309700000  MEMB      144             0.0000000000
     16510       144  CHL1      C17            29.3317245792        0.8118895101       -8.8407700000  MEMB      144             0.0000000000
     16511       144  CHL1      H17            28.2598921054        0.5685378585       -9.0028600000  MEMB      144             0.0000000000
     16512       144  CHL1      C13            30.0278355354        0.2172358751      -10.0248100000  MEMB      144             0.0000000000
     16513       144  CHL1      C18            31.5732341086        0.1912815814       -9.7847000000  MEMB      144             0.0000000000
     16514       144  CHL1      H18A           31.7915683515       -0.7088996153       -9.1712500000  MEMB      144             0.0000000000
     16515       144  CHL1      H18B           32.1494886664        0.0265460688      -10.7201700000  MEMB      144             0.0000000000
     16516       144  CHL1      H18C           31.9168692946        1.0377871574       -9.1525100000  MEMB      144             0.0000000000
     16517       144  CHL1      C12            29.4943325543       -1.1136371928      -10.5273500000  MEMB      144             0.0000000000
     16518       144  CHL1      H12A           29.7364350499       -1.8587618992       -9.7396300000  MEMB      144             0.0000000000
     16519       144  CHL1      H12B           28.3896957866       -1.0501165447      -10.6276200000  MEMB      144             0.0000000000
     16520       144  CHL1      C11            30.1185227231       -1.5316872210      -11.8632500000  MEMB      144             0.0000000000
     16521       144  CHL1      H11A           31.2192945954       -1.4825384008      -11.7211300000  MEMB      144             0.0000000000
     16522       144  CHL1      H11B           29.9102941049       -2.5548258839      -12.2429300000  MEMB      144             0.0000000000
     16523       144  CHL1      C9             29.8320057351       -0.4292873996      -12.9461100000  MEMB      144             0.0000000000
     16524       144  CHL1      H9             28.7372925319       -0.4556298122      -13.1338300000  MEMB      144             0.0000000000
     16525       144  CHL1      C10            30.4168982233       -0.6305577745      -14.3856800000  MEMB      144             0.0000000000
     16526       144  CHL1      C19            31.8930726405       -0.9105204828      -14.3430100000  MEMB      144             0.0000000000
     16527       144  CHL1      H19A           32.3599775221       -1.1287274900      -15.3272400000  MEMB      144             0.0000000000
     16528       144  CHL1      H19B           32.5186058157       -0.1646839056      -13.8075000000  MEMB      144             0.0000000000
     16529       144  CHL1      H19C           32.0164294891       -1.8456273817      -13.7559200000  MEMB      144             0.0000000000
     16530       144  CHL1      C1             29.7000900745       -1.8122873560      -14.8969700000  MEMB      144             0.0000000000
     16531       144  CHL1      H1A            30.1156248480       -2.7113761865      -14.3937000000  MEMB      144             0.0000000000
     16532       144  CHL1      H1B            28.6424603319       -1.8149038450      -14.5567700000  MEMB      144             0.0000000000
     16533       144  CHL1      C2             29.9368008986       -2.0578491355      -16.3985200000  MEMB      144             0.0000000000
     16534       144  CHL1      H2A            29.3603179192       -2.9678591531      -16.6703100000  MEMB      144             0.0000000000
     16535       144  CHL1      H2B            30.9776141580       -2.3810792074      -16.6143100000  MEMB      144             0.0000000000
     16536       144  CHL1      C20            29.6768654024        0.3644257234       -7.3685600000  MEMB      144             0.0000000000
     16537       144  CHL1      H20            30.7264194840        0.6951951892       -7.2157400000  MEMB      144             0.0000000000
     16538       144  CHL1      C21            29.6239808628       -1.2136010332       -7.2162600000  MEMB      144             0.0000000000
     16539       144  CHL1      H21A           29.6761373260       -1.5335404496       -6.1536000000  MEMB      144             0.0000000000
     16540       144  CHL1      H21B           30.5031371448       -1.6835199930       -7.7067600000  MEMB      144             0.0000000000
     16541       144  CHL1      H21C           28.7132647554       -1.6507149385       -7.6786900000  MEMB      144             0.0000000000
     16542       144  CHL1      C22            28.7947979055        1.1135453179       -6.3371300000  MEMB      144             0.0000000000
     16543       144  CHL1      H22A           28.8692910931        2.1846283976       -6.6227100000  MEMB      144             0.0000000000
     16544       144  CHL1      H22B           27.7038152820        0.9040406022       -6.3506000000  MEMB      144             0.0000000000
     16545       144  CHL1      C23            29.3183843962        1.0374886371       -4.9085200000  MEMB      144             0.0000000000
     16546       144  CHL1      H23A           29.2579899858       -0.0254712792       -4.5910400000  MEMB      144             0.0000000000
     16547       144  CHL1      H23B           30.3635607636        1.4011478782       -5.0068700000  MEMB      144             0.0000000000
     16548       144  CHL1      C24            28.2711539407        1.8496563595       -4.1192100000  MEMB      144             0.0000000000
     16549       144  CHL1      H24A           27.8716147807        2.5997903268       -4.8347500000  MEMB      144             0.0000000000
     16550       144  CHL1      H24B           27.4538478940        1.1341509186       -3.8860300000  MEMB      144             0.0000000000
     16551       144  CHL1      C25            28.8495227572        2.4772389793       -2.9154500000  MEMB      144             0.0000000000
     16552       144  CHL1      H25            29.8245065368        2.8872882821       -3.2554300000  MEMB      144             0.0000000000
     16553       144  CHL1      C26            28.0325708719        3.5095546633       -2.1856100000  MEMB      144             0.0000000000
     16554       144  CHL1      H26A           27.6701975195        4.1868768071       -2.9882600000  MEMB      144             0.0000000000
     16555       144  CHL1      H26B           27.1446800518        3.0410222911       -1.7097400000  MEMB      144             0.0000000000
     16556       144  CHL1      H26C           28.6235266929        4.1434197282       -1.4904000000  MEMB      144             0.0000000000
     16557       144  CHL1      C27            29.1565831663        1.4687916797       -1.7377000000  MEMB      144             0.0000000000
     16558       144  CHL1      H27A           29.9351291653        0.8070703430       -2.1739500000  MEMB      144             0.0000000000
     16559       144  CHL1      H27B           29.5111218137        1.8406353302       -0.7526300000  MEMB      144             0.0000000000
     16560       144  CHL1      H27C           28.2806665532        0.8292783964       -1.4966600000  MEMB      144             0.0000000000
     16561       145  SAPC      N             -16.3458355176       23.0548023952      -19.2909546075  MEMB      145             0.0000000000
     16562       145  SAPC      C12           -14.9822362283       23.8192453479      -19.4731807297  MEMB      145             0.0000000000
     16563       145  SAPC      H12A          -14.3573219026       23.2067202360      -20.1061856295  MEMB      145             0.0000000000
     16564       145  SAPC      H12B          -14.5469235764       24.0212534545      -18.5056604097  MEMB      145             0.0000000000
     16565       145  SAPC      C13           -17.2490307192       23.9328699226      -18.4746584639  MEMB      145             0.0000000000
     16566       145  SAPC      H13A          -16.7223222900       24.3364868360      -17.6225600479  MEMB      145             0.0000000000
     16567       145  SAPC      H13B          -17.5648233663       24.7425686584      -19.1158003973  MEMB      145             0.0000000000
     16568       145  SAPC      H13C          -18.1075983625       23.4578198905      -18.0234498953  MEMB      145             0.0000000000
     16569       145  SAPC      C14           -17.0499221681       22.8387416545      -20.5735928596  MEMB      145             0.0000000000
     16570       145  SAPC      H14A          -17.3924142554       23.7715669706      -20.9966013817  MEMB      145             0.0000000000
     16571       145  SAPC      H14B          -16.4388514877       22.2084913106      -21.2027009816  MEMB      145             0.0000000000
     16572       145  SAPC      H14C          -17.9039418014       22.1798604047      -20.5195032397  MEMB      145             0.0000000000
     16573       145  SAPC      C15           -15.9966463078       21.7833538159      -18.6138101887  MEMB      145             0.0000000000
     16574       145  SAPC      H15A          -15.1525110682       21.3751233927      -19.1497053413  MEMB      145             0.0000000000
     16575       145  SAPC      H15B          -15.7570582420       21.8764687589      -17.5648454237  MEMB      145             0.0000000000
     16576       145  SAPC      H15C          -16.9157886008       21.2397816521      -18.7753851278  MEMB      145             0.0000000000
     16577       145  SAPC      C11           -14.9160127575       25.2437256739      -20.2190591590  MEMB      145             0.0000000000
     16578       145  SAPC      H11A          -15.1397294330       25.0764360091      -21.2943665516  MEMB      145             0.0000000000
     16579       145  SAPC      H11B          -13.9130689067       25.6670314776      -19.9971655908  MEMB      145             0.0000000000
     16580       145  SAPC      P             -16.7495409381       27.0318136842      -20.7019519216  MEMB      145             0.0000000000
     16581       145  SAPC      O13           -15.8329114883       27.4337912263      -21.7741377150  MEMB      145             0.0000000000
     16582       145  SAPC      O14           -17.9363540644       26.3598185768      -21.1924725869  MEMB      145             0.0000000000
     16583       145  SAPC      O12           -15.9224962588       26.1621911324      -19.6413204772  MEMB      145             0.0000000000
     16584       145  SAPC      O11           -17.1431918520       28.3661984650      -20.0448612859  MEMB      145             0.0000000000
     16585       145  SAPC      C1            -17.9751243466       28.4163751859      -18.8745504134  MEMB      145             0.0000000000
     16586       145  SAPC      HA            -18.7718762916       29.1281046137      -19.1794256943  MEMB      145             0.0000000000
     16587       145  SAPC      HB            -18.3735015672       27.4108936237      -18.6203390492  MEMB      145             0.0000000000
     16588       145  SAPC      C2            -17.3368526109       29.1437011255      -17.6053799419  MEMB      145             0.0000000000
     16589       145  SAPC      HS            -17.1215217515       30.2163148158      -17.7989094586  MEMB      145             0.0000000000
     16590       145  SAPC      O21           -16.0777622568       28.4307209292      -17.3245249162  MEMB      145             0.0000000000
     16591       145  SAPC      C21           -15.2785467046       28.5659752519      -16.2905183284  MEMB      145             0.0000000000
     16592       145  SAPC      O22           -15.2954832350       29.4572947994      -15.4819907096  MEMB      145             0.0000000000
     16593       145  SAPC      C22           -14.2780603668       27.4265706488      -16.2460764630  MEMB      145             0.0000000000
     16594       145  SAPC      H2R           -13.7316827904       27.4765938713      -17.2121458302  MEMB      145             0.0000000000
     16595       145  SAPC      H2S           -13.5863930330       27.6077345406      -15.3957252644  MEMB      145             0.0000000000
     16596       145  SAPC      C3            -18.2436263065       29.1709969686      -16.3352825032  MEMB      145             0.0000000000
     16597       145  SAPC      HX            -19.2866890108       29.4953664313      -16.5380768441  MEMB      145             0.0000000000
     16598       145  SAPC      HY            -17.7187350319       29.8384724643      -15.6188420291  MEMB      145             0.0000000000
     16599       145  SAPC      O31           -18.3391538916       27.7626106278      -15.8816992794  MEMB      145             0.0000000000
     16600       145  SAPC      C31           -19.1524197980       27.6493710215      -14.8428135637  MEMB      145             0.0000000000
     16601       145  SAPC      O32           -19.7316361334       28.5876788378      -14.2441366544  MEMB      145             0.0000000000
     16602       145  SAPC      C32           -19.3483871759       26.1825220210      -14.5446867781  MEMB      145             0.0000000000
     16603       145  SAPC      H2X           -18.3301113039       25.7387210561      -14.5665033855  MEMB      145             0.0000000000
     16604       145  SAPC      H2Y           -19.9898268545       25.7200664688      -15.3250780000  MEMB      145             0.0000000000
     16605       145  SAPC      C23           -14.8068024851       25.9423807809      -16.2218602460  MEMB      145             0.0000000000
     16606       145  SAPC      H3R           -13.9825347763       25.2036067703      -16.3173424654  MEMB      145             0.0000000000
     16607       145  SAPC      H3S           -15.6495069904       25.7491681957      -16.9195987364  MEMB      145             0.0000000000
     16608       145  SAPC      C24           -15.4582793059       25.5638182053      -14.8296849559  MEMB      145             0.0000000000
     16609       145  SAPC      H4R           -15.9111615658       24.5514888726      -14.8960767824  MEMB      145             0.0000000000
     16610       145  SAPC      H4S           -16.3273518486       26.2445434229      -14.7045970257  MEMB      145             0.0000000000
     16611       145  SAPC      C25           -14.5454409733       25.5103687079      -13.7116803234  MEMB      145             0.0000000000
     16612       145  SAPC      H5R           -13.5058018364       25.4531660720      -14.0664741093  MEMB      145             0.0000000000
     16613       145  SAPC      C26           -14.7675424846       25.6147653432      -12.4032704407  MEMB      145             0.0000000000
     16614       145  SAPC      H6R           -13.9338536333       25.4065410646      -11.7165348467  MEMB      145             0.0000000000
     16615       145  SAPC      C27           -16.1098962495       25.8200275210      -11.7642155927  MEMB      145             0.0000000000
     16616       145  SAPC      H7R           -16.8139175449       25.3965384375      -12.5121004072  MEMB      145             0.0000000000
     16617       145  SAPC      H7S           -16.3005595401       26.8916220658      -11.5413839380  MEMB      145             0.0000000000
     16618       145  SAPC      C28           -16.0846261525       24.9895816591      -10.5383500297  MEMB      145             0.0000000000
     16619       145  SAPC      H8R           -15.8811821087       23.9134467981      -10.6410340774  MEMB      145             0.0000000000
     16620       145  SAPC      C29           -16.2317164703       25.3940843269       -9.2714231652  MEMB      145             0.0000000000
     16621       145  SAPC      H9R           -16.2450792896       24.6440609361       -8.4668825014  MEMB      145             0.0000000000
     16622       145  SAPC      C210          -16.4317450686       26.8650262346       -8.7789165771  MEMB      145             0.0000000000
     16623       145  SAPC      H10R          -17.0577998923       27.3788882120       -9.5393918591  MEMB      145             0.0000000000
     16624       145  SAPC      H10S          -15.5590355569       27.5522590116       -8.7991652675  MEMB      145             0.0000000000
     16625       145  SAPC      C211          -17.1552328007       26.9399926517       -7.4527409581  MEMB      145             0.0000000000
     16626       145  SAPC      H11R          -17.7746517843       26.0466703185       -7.2845291808  MEMB      145             0.0000000000
     16627       145  SAPC      C212          -16.8208908482       27.7684744705       -6.4352907378  MEMB      145             0.0000000000
     16628       145  SAPC      H12R          -17.3314311780       27.6032167462       -5.4750623497  MEMB      145             0.0000000000
     16629       145  SAPC      C213          -15.6909048025       28.7360451674       -6.4705231145  MEMB      145             0.0000000000
     16630       145  SAPC      H13R          -15.7104956122       29.2788463744       -7.4396997506  MEMB      145             0.0000000000
     16631       145  SAPC      H13S          -14.7890881876       28.0887581010       -6.4250550796  MEMB      145             0.0000000000
     16632       145  SAPC      C214          -15.7368945185       29.7997536738       -5.4382333450  MEMB      145             0.0000000000
     16633       145  SAPC      H14R          -16.7322544935       30.2630810133       -5.3705115647  MEMB      145             0.0000000000
     16634       145  SAPC      C215          -14.8628287696       30.0490014722       -4.5332404674  MEMB      145             0.0000000000
     16635       145  SAPC      H15R          -14.9724500593       30.9978888897       -3.9877173960  MEMB      145             0.0000000000
     16636       145  SAPC      C216          -13.4843759568       29.3636652304       -4.3815314300  MEMB      145             0.0000000000
     16637       145  SAPC      H16R          -12.8646018710       30.1714994926       -4.8260581424  MEMB      145             0.0000000000
     16638       145  SAPC      H16S          -13.2507693107       28.5146932574       -5.0590228349  MEMB      145             0.0000000000
     16639       145  SAPC      C217          -13.0599490831       29.0822667271       -2.9914824723  MEMB      145             0.0000000000
     16640       145  SAPC      H17R          -13.0867243057       29.9591992623       -2.3098713922  MEMB      145             0.0000000000
     16641       145  SAPC      H17S          -12.0084641034       28.7540059478       -2.8467566653  MEMB      145             0.0000000000
     16642       145  SAPC      C218          -13.8882705825       27.9597204683       -2.4335857011  MEMB      145             0.0000000000
     16643       145  SAPC      H18R          -14.1615657671       27.1016796966       -3.0842759909  MEMB      145             0.0000000000
     16644       145  SAPC      H18S          -14.8405880185       28.3139571699       -1.9842222701  MEMB      145             0.0000000000
     16645       145  SAPC      C219          -13.1769988666       27.2118717226       -1.2484637422  MEMB      145             0.0000000000
     16646       145  SAPC      H19R          -13.9970458977       26.8257813299       -0.6059863062  MEMB      145             0.0000000000
     16647       145  SAPC      H19S          -12.5321615406       27.8327456930       -0.5904197275  MEMB      145             0.0000000000
     16648       145  SAPC      C220          -12.3614172746       26.1387812983       -1.8964449230  MEMB      145             0.0000000000
     16649       145  SAPC      H20R          -13.0068986387       25.4308698659       -2.4590607247  MEMB      145             0.0000000000
     16650       145  SAPC      H20S          -11.7523686056       25.5871485106       -1.1487260411  MEMB      145             0.0000000000
     16651       145  SAPC      H20T          -11.6048404990       26.4258743318       -2.6576872161  MEMB      145             0.0000000000
     16652       145  SAPC      C33           -20.0082746504       26.0580178441      -13.2069468043  MEMB      145             0.0000000000
     16653       145  SAPC      H3X           -21.0414654206       26.4475582927      -13.3298132731  MEMB      145             0.0000000000
     16654       145  SAPC      H3Y           -19.5901063134       26.8255699920      -12.5211475691  MEMB      145             0.0000000000
     16655       145  SAPC      C34           -19.9552029706       24.6813703100      -12.6264214068  MEMB      145             0.0000000000
     16656       145  SAPC      H4X           -18.9099565007       24.3412823747      -12.4648015837  MEMB      145             0.0000000000
     16657       145  SAPC      H4Y           -20.2993203302       23.9877066161      -13.4231241673  MEMB      145             0.0000000000
     16658       145  SAPC      C35           -20.6409250346       24.5727153289      -11.2753860260  MEMB      145             0.0000000000
     16659       145  SAPC      H5X           -21.6616908266       25.0103348092      -11.3044954493  MEMB      145             0.0000000000
     16660       145  SAPC      H5Y           -20.1835409651       25.2751984364      -10.5462506104  MEMB      145             0.0000000000
     16661       145  SAPC      C36           -20.8009070811       23.1765680425      -10.7276535094  MEMB      145             0.0000000000
     16662       145  SAPC      H6X           -19.8279611122       22.6597798230      -10.8712743648  MEMB      145             0.0000000000
     16663       145  SAPC      H6Y           -21.5798707534       22.7136409423      -11.3704867423  MEMB      145             0.0000000000
     16664       145  SAPC      C37           -21.1704047138       23.2627836543       -9.2562648036  MEMB      145             0.0000000000
     16665       145  SAPC      H7X           -21.4441347005       22.2262762044       -8.9646406295  MEMB      145             0.0000000000
     16666       145  SAPC      H7Y           -22.0423730782       23.9075590773       -9.0149008378  MEMB      145             0.0000000000
     16667       145  SAPC      C38           -19.9085814173       23.4574768628       -8.3632670632  MEMB      145             0.0000000000
     16668       145  SAPC      H8X           -19.3903270266       24.4382665016       -8.4247919309  MEMB      145             0.0000000000
     16669       145  SAPC      H8Y           -19.1250451207       22.7883887677       -8.7788539022  MEMB      145             0.0000000000
     16670       145  SAPC      C39           -20.2796851251       23.1555787225       -6.8998687798  MEMB      145             0.0000000000
     16671       145  SAPC      H9X           -20.5252578364       22.0776361402       -6.7900709309  MEMB      145             0.0000000000
     16672       145  SAPC      H9Y           -21.2613878025       23.6147675825       -6.6554793162  MEMB      145             0.0000000000
     16673       145  SAPC      C310          -19.2760915946       23.4891131591       -5.8166824923  MEMB      145             0.0000000000
     16674       145  SAPC      H10X          -19.0911050672       24.5833794063       -5.7648901422  MEMB      145             0.0000000000
     16675       145  SAPC      H10Y          -18.3670233954       22.8793374269       -6.0066548819  MEMB      145             0.0000000000
     16676       145  SAPC      C311          -19.7418109876       23.1011397919       -4.4010582955  MEMB      145             0.0000000000
     16677       145  SAPC      H11X          -20.1021286568       22.0522619146       -4.4669961398  MEMB      145             0.0000000000
     16678       145  SAPC      H11Y          -20.5523293685       23.7056392243       -3.9406658413  MEMB      145             0.0000000000
     16679       145  SAPC      C312          -18.5175216097       23.2269711447       -3.4615560534  MEMB      145             0.0000000000
     16680       145  SAPC      H12X          -17.7888361722       22.5472991511       -3.9528651683  MEMB      145             0.0000000000
     16681       145  SAPC      H12Y          -18.7094481329       22.9259926228       -2.4094654116  MEMB      145             0.0000000000
     16682       145  SAPC      C313          -17.8171539301       24.6129959526       -3.4315171683  MEMB      145             0.0000000000
     16683       145  SAPC      H13X          -17.5270864049       25.0504048007       -4.4107289340  MEMB      145             0.0000000000
     16684       145  SAPC      H13Y          -16.8581753273       24.5476464435       -2.8743722165  MEMB      145             0.0000000000
     16685       145  SAPC      C314          -18.6941539313       25.6833018363       -2.7302487199  MEMB      145             0.0000000000
     16686       145  SAPC      H14X          -18.9406998441       25.1538341588       -1.7851567506  MEMB      145             0.0000000000
     16687       145  SAPC      H14Y          -19.5676108049       25.7805375560       -3.4099105889  MEMB      145             0.0000000000
     16688       145  SAPC      C315          -18.0579768135       27.0365186259       -2.5102221252  MEMB      145             0.0000000000
     16689       145  SAPC      H15X          -17.4040149649       27.2791445556       -3.3749700261  MEMB      145             0.0000000000
     16690       145  SAPC      H15Y          -17.4024209521       27.2132603095       -1.6308305224  MEMB      145             0.0000000000
     16691       145  SAPC      C316          -19.1390757082       28.2079872472       -2.4538659883  MEMB      145             0.0000000000
     16692       145  SAPC      H16X          -19.5794844231       28.3412416631       -3.4651034337  MEMB      145             0.0000000000
     16693       145  SAPC      H16Y          -18.5156860908       29.0797122093       -2.1609456028  MEMB      145             0.0000000000
     16694       145  SAPC      C317          -20.2653083620       28.0553253446       -1.4901400098  MEMB      145             0.0000000000
     16695       145  SAPC      H17X          -20.8200276270       27.1444479195       -1.8014433117  MEMB      145             0.0000000000
     16696       145  SAPC      H17Y          -20.8917470125       28.9215725500       -1.7926476146  MEMB      145             0.0000000000
     16697       145  SAPC      C318          -19.9828156758       28.2517155814       -0.0276352275  MEMB      145             0.0000000000
     16698       145  SAPC      H18X          -20.8539819340       28.0165337922        0.6204996235  MEMB      145             0.0000000000
     16699       145  SAPC      H18Y          -19.5740061971       29.2561040037        0.2140250739  MEMB      145             0.0000000000
     16700       145  SAPC      H18Z          -19.1851113959       27.5597121663        0.3175033137  MEMB      145             0.0000000000
     16701       146  OSM       N              21.6582780224       17.7667225586      -21.0288847221  MEMB      146             0.0000000000
     16702       146  OSM       C15            20.3111111670       17.0556579280      -21.2612312613  MEMB      146             0.0000000000
     16703       146  OSM       H15A           19.4428312009       17.6755835825      -21.4291054006  MEMB      146             0.0000000000
     16704       146  OSM       H15B           20.1832860953       16.4806376348      -20.3560172531  MEMB      146             0.0000000000
     16705       146  OSM       H15C           20.5323831042       16.3960132337      -22.0872503731  MEMB      146             0.0000000000
     16706       146  OSM       C14            21.4748982913       18.8684926367      -20.0566966811  MEMB      146             0.0000000000
     16707       146  OSM       H14A           21.4129513840       18.3752867140      -19.0978898435  MEMB      146             0.0000000000
     16708       146  OSM       H14B           20.6355695511       19.4976640683      -20.3137388160  MEMB      146             0.0000000000
     16709       146  OSM       H14C           22.3599683110       19.4598784346      -19.8741762366  MEMB      146             0.0000000000
     16710       146  OSM       C13            22.5660027010       16.7741302127      -20.3604671472  MEMB      146             0.0000000000
     16711       146  OSM       H13A           22.6569263986       15.8877700279      -20.9707939406  MEMB      146             0.0000000000
     16712       146  OSM       H13B           22.1508003857       16.4890885936      -19.4050833077  MEMB      146             0.0000000000
     16713       146  OSM       H13C           23.5432481875       17.1794520936      -20.1434295666  MEMB      146             0.0000000000
     16714       146  OSM       C12            22.2134099342       18.3877694648      -22.3067655564  MEMB      146             0.0000000000
     16715       146  OSM       H12A           21.4704850205       19.1265498373      -22.5688079301  MEMB      146             0.0000000000
     16716       146  OSM       H12B           22.2803880392       17.6168743232      -23.0601807645  MEMB      146             0.0000000000
     16717       146  OSM       C11            23.7348224366       18.8708336197      -22.2105584731  MEMB      146             0.0000000000
     16718       146  OSM       H11A           24.0381963475       19.4018568610      -23.1380820071  MEMB      146             0.0000000000
     16719       146  OSM       H11B           24.3408484083       17.9442288632      -22.1185954230  MEMB      146             0.0000000000
     16720       146  OSM       P              25.4332574708       20.2485122572      -20.7840303895  MEMB      146             0.0000000000
     16721       146  OSM       O13            26.2675063290       19.2719916785      -21.5128330954  MEMB      146             0.0000000000
     16722       146  OSM       O14            25.6032383974       21.6928136413      -21.1352881950  MEMB      146             0.0000000000
     16723       146  OSM       O11            25.5433179775       20.0876249550      -19.2214464301  MEMB      146             0.0000000000
     16724       146  OSM       O12            23.8942241710       19.7548460509      -21.1217980540  MEMB      146             0.0000000000
     16725       146  OSM       C1S            24.4159043689       19.6804684055      -18.4719148923  MEMB      146             0.0000000000
     16726       146  OSM       H1S            24.3367648450       18.5913616209      -18.6766203566  MEMB      146             0.0000000000
     16727       146  OSM       H1T            23.4597503664       20.1383359869      -18.8042516950  MEMB      146             0.0000000000
     16728       146  OSM       NF             23.5807089082       19.2706643931      -16.2552723037  MEMB      146             0.0000000000
     16729       146  OSM       HNF            23.0019237915       19.9305103601      -15.7823870932  MEMB      146             0.0000000000
     16730       146  OSM       C2S            24.6218796277       20.0210440312      -16.9555760367  MEMB      146             0.0000000000
     16731       146  OSM       H2S            25.5648967878       19.5952103259      -16.5509711158  MEMB      146             0.0000000000
     16732       146  OSM       C3S            24.5099387414       21.5043568076      -16.7162719856  MEMB      146             0.0000000000
     16733       146  OSM       H3S            23.6219652996       21.8496785563      -17.2877412517  MEMB      146             0.0000000000
     16734       146  OSM       O3             25.5622432197       22.2613241953      -17.2367305901  MEMB      146             0.0000000000
     16735       146  OSM       HO3            26.2759915446       21.6465377608      -17.4216652249  MEMB      146             0.0000000000
     16736       146  OSM       C4S            24.2926719896       21.7302968062      -15.1926306134  MEMB      146             0.0000000000
     16737       146  OSM       H4S            23.2416027020       21.6146260388      -14.8895238204  MEMB      146             0.0000000000
     16738       146  OSM       C5S            25.2043966019       22.1524800107      -14.3452225924  MEMB      146             0.0000000000
     16739       146  OSM       H5S            26.2635781899       22.0692197190      -14.6301825647  MEMB      146             0.0000000000
     16740       146  OSM       C6S            24.8761891722       22.4269847394      -12.8421828684  MEMB      146             0.0000000000
     16741       146  OSM       H6S            23.8044357726       22.6930646540      -12.7202518969  MEMB      146             0.0000000000
     16742       146  OSM       H6T            25.4419796507       23.2878709782      -12.4261576112  MEMB      146             0.0000000000
     16743       146  OSM       C7S            25.0676343917       21.2530149864      -11.8048742605  MEMB      146             0.0000000000
     16744       146  OSM       H7S            25.0168254517       21.6870537178      -10.7834294912  MEMB      146             0.0000000000
     16745       146  OSM       H7T            26.0602776631       20.8127959958      -12.0397945965  MEMB      146             0.0000000000
     16746       146  OSM       C8S            23.9668875036       20.2393659715      -11.9824774960  MEMB      146             0.0000000000
     16747       146  OSM       H8S            23.7712914255       20.1004111340      -13.0672607458  MEMB      146             0.0000000000
     16748       146  OSM       H8T            23.0562919966       20.5814266140      -11.4456982387  MEMB      146             0.0000000000
     16749       146  OSM       C9S            24.2854023460       18.8138933363      -11.4493590605  MEMB      146             0.0000000000
     16750       146  OSM       H9S            25.0579158230       18.4193817768      -12.1435520777  MEMB      146             0.0000000000
     16751       146  OSM       H9T            23.3485426254       18.2167788686      -11.4576813823  MEMB      146             0.0000000000
     16752       146  OSM       C10S           24.8443507180       18.8201595845      -10.0229830942  MEMB      146             0.0000000000
     16753       146  OSM       H10S           24.0676899517       19.4975844589       -9.6079954823  MEMB      146             0.0000000000
     16754       146  OSM       H10T           25.8399708237       19.3058040923       -9.9380667426  MEMB      146             0.0000000000
     16755       146  OSM       C11S           24.8169219607       17.4616999355       -9.2766311455  MEMB      146             0.0000000000
     16756       146  OSM       H11S           25.2918959834       16.6917742137       -9.9215614458  MEMB      146             0.0000000000
     16757       146  OSM       H11T           23.8167413934       17.0888268248       -8.9685319089  MEMB      146             0.0000000000
     16758       146  OSM       C12S           25.6971224497       17.6470760706       -7.9683231190  MEMB      146             0.0000000000
     16759       146  OSM       H12S           26.7062230501       17.9295855638       -8.3374097292  MEMB      146             0.0000000000
     16760       146  OSM       H12T           25.8441219442       16.6552706872       -7.4897476880  MEMB      146             0.0000000000
     16761       146  OSM       C13S           25.1209016828       18.5826919773       -6.9421740763  MEMB      146             0.0000000000
     16762       146  OSM       H13S           24.0864645225       18.3843727948       -6.5887189530  MEMB      146             0.0000000000
     16763       146  OSM       H13T           25.0921175093       19.5792295702       -7.4324847538  MEMB      146             0.0000000000
     16764       146  OSM       C14S           26.0899047430       18.8366533360       -5.7507584557  MEMB      146             0.0000000000
     16765       146  OSM       H14S           27.0528211551       18.4740000486       -6.1697986347  MEMB      146             0.0000000000
     16766       146  OSM       H14T           25.9624549428       18.0684061714       -4.9583729102  MEMB      146             0.0000000000
     16767       146  OSM       C15S           26.1568289924       20.1939664535       -5.2515613048  MEMB      146             0.0000000000
     16768       146  OSM       H15S           26.2539775593       20.8657436575       -6.1311055575  MEMB      146             0.0000000000
     16769       146  OSM       H15T           27.0595026312       20.3691354863       -4.6280094744  MEMB      146             0.0000000000
     16770       146  OSM       C16S           24.9271757168       20.6229969961       -4.4984508199  MEMB      146             0.0000000000
     16771       146  OSM       H16S           24.0230262591       20.5117894120       -5.1344283771  MEMB      146             0.0000000000
     16772       146  OSM       H16T           25.1099162264       21.6768716849       -4.1979922519  MEMB      146             0.0000000000
     16773       146  OSM       C17S           24.7419755187       20.0699361889       -3.0759260271  MEMB      146             0.0000000000
     16774       146  OSM       H17S           25.7827857332       19.8252674668       -2.7739785279  MEMB      146             0.0000000000
     16775       146  OSM       H17T           24.0717582070       19.1839137786       -3.0856051036  MEMB      146             0.0000000000
     16776       146  OSM       C18S           24.2715269681       21.1522335497       -2.1206801183  MEMB      146             0.0000000000
     16777       146  OSM       H18S           24.9493789542       22.0312523840       -2.0741691274  MEMB      146             0.0000000000
     16778       146  OSM       H18T           24.1295855409       20.7870611913       -1.0810536540  MEMB      146             0.0000000000
     16779       146  OSM       H18U           23.3110802219       21.5812001756       -2.4782432416  MEMB      146             0.0000000000
     16780       146  OSM       C1F            23.5399113805       17.8985693723      -16.2285029989  MEMB      146             0.0000000000
     16781       146  OSM       OF             24.5389886844       17.1954828482      -16.5277200914  MEMB      146             0.0000000000
     16782       146  OSM       C2F            22.2256903816       17.2940160351      -15.8594831563  MEMB      146             0.0000000000
     16783       146  OSM       H2F            21.6547976700       16.9454907166      -16.7465753263  MEMB      146             0.0000000000
     16784       146  OSM       H2G            21.6990914259       18.1312437921      -15.3534554254  MEMB      146             0.0000000000
     16785       146  OSM       C3F            22.3588485032       16.1484698592      -14.8812374374  MEMB      146             0.0000000000
     16786       146  OSM       H3F            22.9204921999       16.4520055153      -13.9719833300  MEMB      146             0.0000000000
     16787       146  OSM       H3G            22.9902489757       15.3635080180      -15.3497345870  MEMB      146             0.0000000000
     16788       146  OSM       C4F            21.0651445529       15.5060820648      -14.3332302564  MEMB      146             0.0000000000
     16789       146  OSM       H4F            21.3789125973       14.7361932451      -13.5962485486  MEMB      146             0.0000000000
     16790       146  OSM       H4G            20.4811413050       15.0854214668      -15.1795787819  MEMB      146             0.0000000000
     16791       146  OSM       C5F            20.1976919032       16.4779436072      -13.5502888532  MEMB      146             0.0000000000
     16792       146  OSM       H5F            19.3306027044       15.8840905302      -13.1899899407  MEMB      146             0.0000000000
     16793       146  OSM       H5G            19.7029106964       17.2133816508      -14.2200975435  MEMB      146             0.0000000000
     16794       146  OSM       C6F            20.8387301851       17.1578478471      -12.3831080251  MEMB      146             0.0000000000
     16795       146  OSM       H6F            21.5610176849       17.8832517017      -12.8148614796  MEMB      146             0.0000000000
     16796       146  OSM       H6G            21.3850561740       16.4768453087      -11.6960243676  MEMB      146             0.0000000000
     16797       146  OSM       C7F            19.8193511307       17.9145841092      -11.4433025285  MEMB      146             0.0000000000
     16798       146  OSM       H7F            19.0940847464       17.1466754963      -11.0988809653  MEMB      146             0.0000000000
     16799       146  OSM       H7G            19.3318201593       18.5141635962      -12.2415122272  MEMB      146             0.0000000000
     16800       146  OSM       C8F            20.4404204102       18.7999641938      -10.4038312919  MEMB      146             0.0000000000
     16801       146  OSM       H8F            21.0049643941       19.6739867345      -10.7933127462  MEMB      146             0.0000000000
     16802       146  OSM       H8G            21.3625428025       18.2981972794      -10.0401810022  MEMB      146             0.0000000000
     16803       146  OSM       C9F            19.5633960824       19.1637900963       -9.2790926182  MEMB      146             0.0000000000
     16804       146  OSM       H9F            19.2712079836       20.2155426630       -9.4148947343  MEMB      146             0.0000000000
     16805       146  OSM       C10F           19.2350651975       18.5043447657       -8.1648668803  MEMB      146             0.0000000000
     16806       146  OSM       H10F           18.5505083940       18.9902953342       -7.4540695906  MEMB      146             0.0000000000
     16807       146  OSM       C11F           19.6507562789       17.1855259107       -7.7227352720  MEMB      146             0.0000000000
     16808       146  OSM       H11F           19.9148664082       16.5987556867       -8.6284216483  MEMB      146             0.0000000000
     16809       146  OSM       H11G           18.8088382653       16.7279516239       -7.1604885367  MEMB      146             0.0000000000
     16810       146  OSM       C12F           20.8988146519       17.1464305677       -6.7633002492  MEMB      146             0.0000000000
     16811       146  OSM       H12F           21.7101053052       17.4687454845       -7.4504985553  MEMB      146             0.0000000000
     16812       146  OSM       H12G           21.1193899464       16.0843075452       -6.5233791948  MEMB      146             0.0000000000
     16813       146  OSM       C13F           20.7825823685       18.0680182044       -5.4760954909  MEMB      146             0.0000000000
     16814       146  OSM       H13F           20.5950119991       19.1039270610       -5.8311040863  MEMB      146             0.0000000000
     16815       146  OSM       H13G           21.8042368336       18.0428328194       -5.0403099790  MEMB      146             0.0000000000
     16816       146  OSM       C14F           19.7863678012       17.5561956800       -4.4168995700  MEMB      146             0.0000000000
     16817       146  OSM       H14F           19.8887506037       16.4587953169       -4.2770761635  MEMB      146             0.0000000000
     16818       146  OSM       H14G           18.7445623347       17.8396316174       -4.6788660181  MEMB      146             0.0000000000
     16819       146  OSM       C15F           19.8606152903       17.9703405472       -2.9803905115  MEMB      146             0.0000000000
     16820       146  OSM       H15F           19.2136957826       17.3813709354       -2.2956047738  MEMB      146             0.0000000000
     16821       146  OSM       H15G           19.4723073235       19.0090361097       -3.0485788166  MEMB      146             0.0000000000
     16822       146  OSM       C16F           21.2400441930       17.7439731713       -2.4067567572  MEMB      146             0.0000000000
     16823       146  OSM       H16F           21.8597614252       18.4453948275       -3.0053220397  MEMB      146             0.0000000000
     16824       146  OSM       H16G           21.5840197823       16.6920654043       -2.5041828719  MEMB      146             0.0000000000
     16825       146  OSM       C17F           21.4546373223       18.0686690899       -0.8713707763  MEMB      146             0.0000000000
     16826       146  OSM       H17F           22.5241145722       17.8269954934       -0.6921121842  MEMB      146             0.0000000000
     16827       146  OSM       H17G           20.8312544069       17.3958809727       -0.2444154541  MEMB      146             0.0000000000
     16828       146  OSM       C18F           21.1911830988       19.5281038577       -0.4789781080  MEMB      146             0.0000000000
     16829       146  OSM       H18F           21.3742258415       19.5359113580        0.6168108637  MEMB      146             0.0000000000
     16830       146  OSM       H18G           20.1804383195       19.9774122778       -0.5830839284  MEMB      146             0.0000000000
     16831       146  OSM       H18H           21.9364334179       20.2220639558       -0.9232096286  MEMB      146             0.0000000000
     16832       147  CHL1      C3            -22.9113358867      -19.5282339396      -17.3095300000  MEMB      147             0.0000000000
     16833       147  CHL1      H3            -21.8183531201      -19.4395991474      -17.1310600000  MEMB      147             0.0000000000
     16834       147  CHL1      O3            -23.2398959133      -19.6013528604      -18.6904700000  MEMB      147             0.0000000000
     16835       147  CHL1      H3'           -22.7639480017      -20.3273730311      -19.1003100000  MEMB      147             0.0000000000
     16836       147  CHL1      C4            -23.4420281769      -20.8155101889      -16.6196900000  MEMB      147             0.0000000000
     16837       147  CHL1      H4A           -24.5312669012      -20.8433165787      -16.8367600000  MEMB      147             0.0000000000
     16838       147  CHL1      H4B           -22.9468558443      -21.6484727350      -17.1631100000  MEMB      147             0.0000000000
     16839       147  CHL1      C5            -23.3199268083      -20.8238311982      -15.1076300000  MEMB      147             0.0000000000
     16840       147  CHL1      C6            -22.6930782077      -21.7797173987      -14.4988400000  MEMB      147             0.0000000000
     16841       147  CHL1      H6            -22.2819207918      -22.6238459949      -15.0719000000  MEMB      147             0.0000000000
     16842       147  CHL1      C7            -22.3769393339      -21.7625466393      -13.0301200000  MEMB      147             0.0000000000
     16843       147  CHL1      H7A           -22.3955211038      -22.7655751324      -12.5527300000  MEMB      147             0.0000000000
     16844       147  CHL1      H7B           -21.3568466709      -21.3243386021      -12.9886700000  MEMB      147             0.0000000000
     16845       147  CHL1      C8            -23.3494919960      -20.8925085021      -12.2653700000  MEMB      147             0.0000000000
     16846       147  CHL1      H8            -24.3584194016      -21.3169147268      -12.4557600000  MEMB      147             0.0000000000
     16847       147  CHL1      C14           -22.8947856952      -20.7161114950      -10.8449700000  MEMB      147             0.0000000000
     16848       147  CHL1      H14           -21.9438989084      -20.1548588268      -10.9680100000  MEMB      147             0.0000000000
     16849       147  CHL1      C15           -22.3934497731      -21.8951781616      -10.0535200000  MEMB      147             0.0000000000
     16850       147  CHL1      H15A          -23.0688461890      -22.7451574888      -10.2894800000  MEMB      147             0.0000000000
     16851       147  CHL1      H15B          -21.3346013737      -22.1639616082      -10.2558100000  MEMB      147             0.0000000000
     16852       147  CHL1      C16           -22.5156135566      -21.3738021679       -8.5818900000  MEMB      147             0.0000000000
     16853       147  CHL1      H16A          -23.3854269263      -21.9862419588       -8.2614800000  MEMB      147             0.0000000000
     16854       147  CHL1      H16B          -21.5601197831      -21.4371722814       -8.0185500000  MEMB      147             0.0000000000
     16855       147  CHL1      C17           -22.9756122946      -19.9090790986       -8.6493000000  MEMB      147             0.0000000000
     16856       147  CHL1      H17           -22.0059513394      -19.3950650322       -8.8221500000  MEMB      147             0.0000000000
     16857       147  CHL1      C13           -23.7508859509      -19.8170591968       -9.9564400000  MEMB      147             0.0000000000
     16858       147  CHL1      C18           -25.1824955720      -20.4646364852       -9.8548000000  MEMB      147             0.0000000000
     16859       147  CHL1      H18A          -25.6286877326      -20.3809760873      -10.8688200000  MEMB      147             0.0000000000
     16860       147  CHL1      H18B          -25.0244028727      -21.5363950473       -9.6084800000  MEMB      147             0.0000000000
     16861       147  CHL1      H18C          -25.8719612419      -19.9893465268       -9.1246900000  MEMB      147             0.0000000000
     16862       147  CHL1      C12           -23.7704744167      -18.4420287858      -10.5542400000  MEMB      147             0.0000000000
     16863       147  CHL1      H12A          -24.5698568719      -17.8505530291      -10.0588000000  MEMB      147             0.0000000000
     16864       147  CHL1      H12B          -22.7667372410      -17.9954150103      -10.3888000000  MEMB      147             0.0000000000
     16865       147  CHL1      C11           -24.0696130316      -18.4019614661      -12.0652100000  MEMB      147             0.0000000000
     16866       147  CHL1      H11A          -25.1762469732      -18.5003233299      -12.0610800000  MEMB      147             0.0000000000
     16867       147  CHL1      H11B          -23.8358711198      -17.4573690348      -12.6013400000  MEMB      147             0.0000000000
     16868       147  CHL1      C9            -23.3227982882      -19.4755296644      -12.9299900000  MEMB      147             0.0000000000
     16869       147  CHL1      H9            -22.2820806845      -19.0866934524      -12.9249200000  MEMB      147             0.0000000000
     16870       147  CHL1      C10           -23.7784824592      -19.5190096088      -14.3900700000  MEMB      147             0.0000000000
     16871       147  CHL1      C19           -25.3617795808      -19.4642817388      -14.3743500000  MEMB      147             0.0000000000
     16872       147  CHL1      H19A          -25.8909754540      -19.9107181817      -15.2432400000  MEMB      147             0.0000000000
     16873       147  CHL1      H19B          -25.6886496317      -20.0846074148      -13.5125700000  MEMB      147             0.0000000000
     16874       147  CHL1      H19C          -25.7301847159      -18.4225695506      -14.2584500000  MEMB      147             0.0000000000
     16875       147  CHL1      C1            -23.2523248456      -18.2142851416      -15.1664600000  MEMB      147             0.0000000000
     16876       147  CHL1      H1A           -23.6174269247      -17.3154148140      -14.6251100000  MEMB      147             0.0000000000
     16877       147  CHL1      H1B           -22.1420271455      -18.2180648632      -15.1271900000  MEMB      147             0.0000000000
     16878       147  CHL1      C2            -23.5605857864      -18.3054253417      -16.6737300000  MEMB      147             0.0000000000
     16879       147  CHL1      H2A           -23.0585600217      -17.4870618298      -17.2328200000  MEMB      147             0.0000000000
     16880       147  CHL1      H2B           -24.6582852339      -18.2501287944      -16.8359900000  MEMB      147             0.0000000000
     16881       147  CHL1      C20           -23.7412809140      -19.4434156551       -7.4328600000  MEMB      147             0.0000000000
     16882       147  CHL1      H20           -24.8367215590      -19.5461505053       -7.5870100000  MEMB      147             0.0000000000
     16883       147  CHL1      C21           -23.3941016048      -17.9609159396       -7.2456700000  MEMB      147             0.0000000000
     16884       147  CHL1      H21A          -22.3101865017      -17.7951050663       -7.0669000000  MEMB      147             0.0000000000
     16885       147  CHL1      H21B          -24.0344121154      -17.6304455990       -6.4000300000  MEMB      147             0.0000000000
     16886       147  CHL1      H21C          -23.6980195714      -17.3834179301       -8.1448100000  MEMB      147             0.0000000000
     16887       147  CHL1      C22           -23.3301992337      -20.2692420749       -6.1123100000  MEMB      147             0.0000000000
     16888       147  CHL1      H22A          -23.5473041683      -21.3551048240       -6.2022800000  MEMB      147             0.0000000000
     16889       147  CHL1      H22B          -22.2466457353      -20.0314181373       -6.0517200000  MEMB      147             0.0000000000
     16890       147  CHL1      C23           -23.8576256588      -19.7399914555       -4.7688500000  MEMB      147             0.0000000000
     16891       147  CHL1      H23A          -23.3605970836      -18.7646761003       -4.5789900000  MEMB      147             0.0000000000
     16892       147  CHL1      H23B          -24.9649496331      -19.6561550030       -4.7353500000  MEMB      147             0.0000000000
     16893       147  CHL1      C24           -23.4103918389      -20.6374056067       -3.5343500000  MEMB      147             0.0000000000
     16894       147  CHL1      H24A          -23.8722792232      -21.6148029088       -3.7906100000  MEMB      147             0.0000000000
     16895       147  CHL1      H24B          -22.3022797736      -20.6754311150       -3.4640100000  MEMB      147             0.0000000000
     16896       147  CHL1      C25           -23.9792768402      -20.2245602297       -2.2025500000  MEMB      147             0.0000000000
     16897       147  CHL1      H25           -23.7222942829      -19.1716395542       -1.9583700000  MEMB      147             0.0000000000
     16898       147  CHL1      C26           -25.4798952594      -20.1827351573       -2.1229200000  MEMB      147             0.0000000000
     16899       147  CHL1      H26A          -25.9138419377      -19.3206902634       -2.6732700000  MEMB      147             0.0000000000
     16900       147  CHL1      H26B          -25.8206308533      -21.0789863506       -2.6841400000  MEMB      147             0.0000000000
     16901       147  CHL1      H26C          -25.8125190958      -20.1289882199       -1.0642500000  MEMB      147             0.0000000000
     16902       147  CHL1      C27           -23.4971412610      -21.2499255345       -1.1494300000  MEMB      147             0.0000000000
     16903       147  CHL1      H27A          -23.8975158355      -20.9810965680       -0.1485500000  MEMB      147             0.0000000000
     16904       147  CHL1      H27B          -23.7474995180      -22.3121590317       -1.3574900000  MEMB      147             0.0000000000
     16905       147  CHL1      H27C          -22.3963277931      -21.3412784361       -1.0303000000  MEMB      147             0.0000000000
     16906       148  OSM       N               4.8808047880       30.0779333715      -20.6102859495  MEMB      148             0.0000000000
     16907       148  OSM       C15             5.7321730438       29.9773224050      -19.4097585793  MEMB      148             0.0000000000
     16908       148  OSM       H15A            6.1402516513       28.9829764733      -19.3041749029  MEMB      148             0.0000000000
     16909       148  OSM       H15B            5.1793640542       30.2761470591      -18.5314044771  MEMB      148             0.0000000000
     16910       148  OSM       H15C            6.5576219929       30.6540242613      -19.5744047483  MEMB      148             0.0000000000
     16911       148  OSM       C14             5.5254388208       29.2985300578      -21.7770946016  MEMB      148             0.0000000000
     16912       148  OSM       H14A            6.4138304579       29.8186458236      -22.1036521886  MEMB      148             0.0000000000
     16913       148  OSM       H14B            4.8984897456       29.2330928874      -22.6540511152  MEMB      148             0.0000000000
     16914       148  OSM       H14C            5.8034924356       28.2980610565      -21.4801975417  MEMB      148             0.0000000000
     16915       148  OSM       C13             3.5189969736       29.5231187628      -20.3273886850  MEMB      148             0.0000000000
     16916       148  OSM       H13A            3.6477985994       28.4887245148      -20.0448307636  MEMB      148             0.0000000000
     16917       148  OSM       H13B            2.9334804270       29.5594570173      -21.2341686339  MEMB      148             0.0000000000
     16918       148  OSM       H13C            2.9718744843       30.1060793273      -19.6012936250  MEMB      148             0.0000000000
     16919       148  OSM       C12             4.7985750596       31.5969010312      -20.8917138482  MEMB      148             0.0000000000
     16920       148  OSM       H12A            5.8009226557       31.9449993905      -21.0930265936  MEMB      148             0.0000000000
     16921       148  OSM       H12B            4.4302674934       31.9825137299      -19.9525374374  MEMB      148             0.0000000000
     16922       148  OSM       C11             4.0465379169       32.2861196320      -22.0821583345  MEMB      148             0.0000000000
     16923       148  OSM       H11A            4.4248654206       31.8275476892      -23.0207215872  MEMB      148             0.0000000000
     16924       148  OSM       H11B            4.4092827100       33.3362173466      -22.0765102723  MEMB      148             0.0000000000
     16925       148  OSM       P               1.6864751726       33.0247855216      -21.1929415958  MEMB      148             0.0000000000
     16926       148  OSM       O13             1.7919871463       34.3546249375      -21.7805256315  MEMB      148             0.0000000000
     16927       148  OSM       O14             0.3868717750       32.3375403710      -21.1406773204  MEMB      148             0.0000000000
     16928       148  OSM       O11             2.4501189487       32.8920726381      -19.7150417259  MEMB      148             0.0000000000
     16929       148  OSM       O12             2.7113122173       32.1086593949      -22.0724137310  MEMB      148             0.0000000000
     16930       148  OSM       C1S             2.0167373342       33.6449939918      -18.6224624400  MEMB      148             0.0000000000
     16931       148  OSM       H1S             0.9061193300       33.6165354279      -18.6286910473  MEMB      148             0.0000000000
     16932       148  OSM       H1T             2.3954488856       34.6879163324      -18.6791324003  MEMB      148             0.0000000000
     16933       148  OSM       NF              3.9682983196       33.4480382371      -16.8068311501  MEMB      148             0.0000000000
     16934       148  OSM       HNF             4.6360806338       32.7285757670      -16.6323331697  MEMB      148             0.0000000000
     16935       148  OSM       C2S             2.6331110601       32.9716881418      -17.2317478130  MEMB      148             0.0000000000
     16936       148  OSM       H2S             1.8722784979       33.1926794493      -16.4528913508  MEMB      148             0.0000000000
     16937       148  OSM       C3S             2.6228982444       31.5182404047      -17.3572528112  MEMB      148             0.0000000000
     16938       148  OSM       H3S             3.3370785399       31.2162222565      -18.1528987852  MEMB      148             0.0000000000
     16939       148  OSM       O3              1.3364273407       31.0719895777      -17.7593010756  MEMB      148             0.0000000000
     16940       148  OSM       HO3             0.8753231174       31.8596017085      -18.0570424553  MEMB      148             0.0000000000
     16941       148  OSM       C4S             2.9022145948       30.8513625663      -16.0599299123  MEMB      148             0.0000000000
     16942       148  OSM       H4S             2.0479114541       30.8189384225      -15.3677482955  MEMB      148             0.0000000000
     16943       148  OSM       C5S             3.9882737080       30.2415132436      -15.7008845440  MEMB      148             0.0000000000
     16944       148  OSM       H5S             4.8794689306       30.3372426941      -16.3385417616  MEMB      148             0.0000000000
     16945       148  OSM       C6S             4.1712561263       29.6131472952      -14.4277821093  MEMB      148             0.0000000000
     16946       148  OSM       H6S             5.0547359681       30.1048330157      -13.9673154174  MEMB      148             0.0000000000
     16947       148  OSM       H6T             4.3951856298       28.5512546894      -14.6656067125  MEMB      148             0.0000000000
     16948       148  OSM       C7S             3.1146168851       29.6630027164      -13.3561047328  MEMB      148             0.0000000000
     16949       148  OSM       H7S             2.1690902573       29.2115300300      -13.7255267185  MEMB      148             0.0000000000
     16950       148  OSM       H7T             2.9456749066       30.7382309408      -13.1332504001  MEMB      148             0.0000000000
     16951       148  OSM       C8S             3.6768759380       29.0240962420      -12.0885056437  MEMB      148             0.0000000000
     16952       148  OSM       H8S             4.1593294776       28.0881534987      -12.4428659224  MEMB      148             0.0000000000
     16953       148  OSM       H8T             2.7702097660       28.8263270788      -11.4776335576  MEMB      148             0.0000000000
     16954       148  OSM       C9S             4.7768109043       29.8051409270      -11.3626450189  MEMB      148             0.0000000000
     16955       148  OSM       H9S             5.4282640033       30.3270996053      -12.0957815867  MEMB      148             0.0000000000
     16956       148  OSM       H9T             5.4823520282       29.1526586337      -10.8051508333  MEMB      148             0.0000000000
     16957       148  OSM       C10S            4.2269530305       30.8100950089      -10.3466442295  MEMB      148             0.0000000000
     16958       148  OSM       H10S            3.7904714104       30.1269949814       -9.5869207313  MEMB      148             0.0000000000
     16959       148  OSM       H10T            3.4785937631       31.5518594435      -10.6988728702  MEMB      148             0.0000000000
     16960       148  OSM       C11S            5.3764787836       31.6655958791       -9.7795527469  MEMB      148             0.0000000000
     16961       148  OSM       H11S            5.5804266803       32.4678450091      -10.5205811347  MEMB      148             0.0000000000
     16962       148  OSM       H11T            6.1994841994       30.9280150709       -9.6657218772  MEMB      148             0.0000000000
     16963       148  OSM       C12S            5.0247632264       32.3335781908       -8.4276496395  MEMB      148             0.0000000000
     16964       148  OSM       H12S            4.6713300417       31.5781841096       -7.6936292570  MEMB      148             0.0000000000
     16965       148  OSM       H12T            4.2918300052       33.1467553045       -8.6170500685  MEMB      148             0.0000000000
     16966       148  OSM       C13S            6.3990887922       32.9466752832       -7.8774611474  MEMB      148             0.0000000000
     16967       148  OSM       H13S            6.8142056576       33.7453229870       -8.5287379014  MEMB      148             0.0000000000
     16968       148  OSM       H13T            7.1511389406       32.1309143553       -7.8202259163  MEMB      148             0.0000000000
     16969       148  OSM       C14S            6.2674294427       33.6388509936       -6.4364013316  MEMB      148             0.0000000000
     16970       148  OSM       H14S            5.4622440173       34.3992779408       -6.3483792237  MEMB      148             0.0000000000
     16971       148  OSM       H14T            7.1618510748       34.2279050030       -6.1408569090  MEMB      148             0.0000000000
     16972       148  OSM       C15S            6.0777054357       32.5759310860       -5.2968866755  MEMB      148             0.0000000000
     16973       148  OSM       H15S            6.9159985488       31.8486304758       -5.2457093957  MEMB      148             0.0000000000
     16974       148  OSM       H15T            5.2156604527       31.9076208206       -5.5079813228  MEMB      148             0.0000000000
     16975       148  OSM       C16S            5.9095899710       33.0656088097       -3.8173336954  MEMB      148             0.0000000000
     16976       148  OSM       H16S            5.0089584872       32.4733975534       -3.5481306385  MEMB      148             0.0000000000
     16977       148  OSM       H16T            5.6493398368       34.1431372427       -3.7430121097  MEMB      148             0.0000000000
     16978       148  OSM       C17S            7.0537249946       32.6746050890       -2.9282648731  MEMB      148             0.0000000000
     16979       148  OSM       H17S            7.1033744511       31.5647958891       -2.9148725136  MEMB      148             0.0000000000
     16980       148  OSM       H17T            6.9524046813       33.0242708754       -1.8786031151  MEMB      148             0.0000000000
     16981       148  OSM       C18S            8.3293123207       33.3184294928       -3.4755101551  MEMB      148             0.0000000000
     16982       148  OSM       H18S            9.1598918772       32.6414174397       -3.1820592948  MEMB      148             0.0000000000
     16983       148  OSM       H18T            8.5928067946       34.2878536837       -3.0010535361  MEMB      148             0.0000000000
     16984       148  OSM       H18U            8.4098336655       33.5644323845       -4.5559362157  MEMB      148             0.0000000000
     16985       148  OSM       C1F             4.3038469924       34.7022106191      -16.4322165325  MEMB      148             0.0000000000
     16986       148  OSM       OF              3.6183702006       35.7135756020      -16.5682063813  MEMB      148             0.0000000000
     16987       148  OSM       C2F             5.5476624805       34.8516221437      -15.6279405884  MEMB      148             0.0000000000
     16988       148  OSM       H2F             6.2252191620       35.5707727470      -16.1359365696  MEMB      148             0.0000000000
     16989       148  OSM       H2G             6.1244578513       33.9296514846      -15.4007878502  MEMB      148             0.0000000000
     16990       148  OSM       C3F             5.2336100416       35.5091261799      -14.2369810490  MEMB      148             0.0000000000
     16991       148  OSM       H3F             4.6411300511       36.4368022025      -14.3876657204  MEMB      148             0.0000000000
     16992       148  OSM       H3G             6.1738107256       35.7562697309      -13.6991487880  MEMB      148             0.0000000000
     16993       148  OSM       C4F             4.5288956946       34.5307559131      -13.2828281074  MEMB      148             0.0000000000
     16994       148  OSM       H4F             5.0439779656       34.4845821344      -12.2995276623  MEMB      148             0.0000000000
     16995       148  OSM       H4G             4.6936440690       33.4627963868      -13.5409786912  MEMB      148             0.0000000000
     16996       148  OSM       C5F             3.0549946678       34.8031935896      -13.1720237419  MEMB      148             0.0000000000
     16997       148  OSM       H5F             2.4817091525       34.7473019289      -14.1220453964  MEMB      148             0.0000000000
     16998       148  OSM       H5G             3.1489974243       35.8406001319      -12.7856659590  MEMB      148             0.0000000000
     16999       148  OSM       C6F             2.3122564782       34.0336844404      -12.0540179354  MEMB      148             0.0000000000
     17000       148  OSM       H6F             2.9158003184       34.0918832975      -11.1230670919  MEMB      148             0.0000000000
     17001       148  OSM       H6G             2.0782125542       32.9721370900      -12.2834990806  MEMB      148             0.0000000000
     17002       148  OSM       C7F             0.9071017935       34.7040334124      -11.6927692636  MEMB      148             0.0000000000
     17003       148  OSM       H7F             0.1404447452       34.6596992646      -12.4956344688  MEMB      148             0.0000000000
     17004       148  OSM       H7G             1.1334753161       35.7700693794      -11.4767991038  MEMB      148             0.0000000000
     17005       148  OSM       C8F             0.3408684654       34.1420929791      -10.3850165174  MEMB      148             0.0000000000
     17006       148  OSM       H8F            -0.3149728484       34.9098358767       -9.9215906346  MEMB      148             0.0000000000
     17007       148  OSM       H8G             1.1450924901       33.8930367580       -9.6600917646  MEMB      148             0.0000000000
     17008       148  OSM       C9F            -0.4300936180       32.8651270211      -10.6287493679  MEMB      148             0.0000000000
     17009       148  OSM       H9F            -0.5253412824       32.6077256884      -11.6939591913  MEMB      148             0.0000000000
     17010       148  OSM       C10F           -1.0049059489       32.0436768009       -9.6910028726  MEMB      148             0.0000000000
     17011       148  OSM       H10F           -1.7131318660       31.2436052771       -9.9523491810  MEMB      148             0.0000000000
     17012       148  OSM       C11F           -0.8320474850       32.4117293414       -8.2022141930  MEMB      148             0.0000000000
     17013       148  OSM       H11F           -1.4778266536       31.7038044921       -7.6399574273  MEMB      148             0.0000000000
     17014       148  OSM       H11G           -0.9700261884       33.4935710425       -7.9903148177  MEMB      148             0.0000000000
     17015       148  OSM       C12F            0.5634079342       32.2197010639       -7.5991881806  MEMB      148             0.0000000000
     17016       148  OSM       H12F            1.3255701919       32.6871317190       -8.2586866726  MEMB      148             0.0000000000
     17017       148  OSM       H12G            0.8438649335       31.1457727420       -7.6475913924  MEMB      148             0.0000000000
     17018       148  OSM       C13F            0.9337012963       32.8383108576       -6.2541683650  MEMB      148             0.0000000000
     17019       148  OSM       H13F            1.0989369970       33.9058709181       -6.5136552363  MEMB      148             0.0000000000
     17020       148  OSM       H13G            1.8129164653       32.3089613168       -5.8286202804  MEMB      148             0.0000000000
     17021       148  OSM       C14F           -0.2961917546       32.7791606135       -5.2470412158  MEMB      148             0.0000000000
     17022       148  OSM       H14F           -0.3912889120       31.7438214986       -4.8554409079  MEMB      148             0.0000000000
     17023       148  OSM       H14G           -1.2863569053       33.0749808765       -5.6549433159  MEMB      148             0.0000000000
     17024       148  OSM       C15F           -0.0558819956       33.7396186352       -3.9828099010  MEMB      148             0.0000000000
     17025       148  OSM       H15F           -0.6521998256       33.2317432047       -3.1949073103  MEMB      148             0.0000000000
     17026       148  OSM       H15G           -0.5258790993       34.6905833081       -4.3130982132  MEMB      148             0.0000000000
     17027       148  OSM       C16F            1.4150869680       33.6935617247       -3.5159903007  MEMB      148             0.0000000000
     17028       148  OSM       H16F            2.1236283205       33.8805492171       -4.3510513511  MEMB      148             0.0000000000
     17029       148  OSM       H16G            1.6393437394       32.6563564663       -3.1870008522  MEMB      148             0.0000000000
     17030       148  OSM       C17F            1.6448250666       34.5997314988       -2.3033475979  MEMB      148             0.0000000000
     17031       148  OSM       H17F            0.7814350824       34.5123029006       -1.6096357365  MEMB      148             0.0000000000
     17032       148  OSM       H17G            1.6386889969       35.6835862762       -2.5473590129  MEMB      148             0.0000000000
     17033       148  OSM       C18F            2.7201251110       34.2430757568       -1.3973679794  MEMB      148             0.0000000000
     17034       148  OSM       H18F            2.6907558322       34.8301355232       -0.4545959204  MEMB      148             0.0000000000
     17035       148  OSM       H18G            3.7773173179       34.4134980947       -1.6933777455  MEMB      148             0.0000000000
     17036       148  OSM       H18H            2.6659841356       33.1553163851       -1.1778934245  MEMB      148             0.0000000000
     17037       149  SAPE      N              16.7533505865      -28.6881462814      -19.6443530191  MEMB      149             0.0000000000
     17038       149  SAPE      HN1            16.3705112588      -28.1635674476      -18.8320409796  MEMB      149             0.0000000000
     17039       149  SAPE      HN2            15.9297801718      -29.2215621160      -19.9890260288  MEMB      149             0.0000000000
     17040       149  SAPE      HN3            17.6160825072      -29.2512950960      -19.5023769412  MEMB      149             0.0000000000
     17041       149  SAPE      C12            17.1056215191      -27.6839414161      -20.7094294511  MEMB      149             0.0000000000
     17042       149  SAPE      H12A           17.0971555202      -28.2639922078      -21.6569474681  MEMB      149             0.0000000000
     17043       149  SAPE      H12B           18.0531554211      -27.2253281576      -20.3542191788  MEMB      149             0.0000000000
     17044       149  SAPE      C11            16.0285562030      -26.6020612539      -20.8949843745  MEMB      149             0.0000000000
     17045       149  SAPE      H11A           15.0039636642      -27.0123649363      -21.0221931168  MEMB      149             0.0000000000
     17046       149  SAPE      H11B           16.2734559256      -26.0637948264      -21.8355238808  MEMB      149             0.0000000000
     17047       149  SAPE      P              16.8445609403      -24.4091537883      -19.8496337715  MEMB      149             0.0000000000
     17048       149  SAPE      O13            18.2830452700      -24.7972473982      -19.9445850834  MEMB      149             0.0000000000
     17049       149  SAPE      O14            16.2896225249      -23.4705031780      -20.8096840626  MEMB      149             0.0000000000
     17050       149  SAPE      O12            16.0344476224      -25.7366824433      -19.8082196937  MEMB      149             0.0000000000
     17051       149  SAPE      O11            16.5498121306      -23.8477634425      -18.3391105281  MEMB      149             0.0000000000
     17052       149  SAPE      C1             17.0369598935      -24.5774634661      -17.2967005186  MEMB      149             0.0000000000
     17053       149  SAPE      HA             17.7621476271      -25.3892356284      -17.5190738381  MEMB      149             0.0000000000
     17054       149  SAPE      HB             17.4297748379      -23.7684088470      -16.6444369658  MEMB      149             0.0000000000
     17055       149  SAPE      C2             15.8734784220      -25.1948326409      -16.4913429287  MEMB      149             0.0000000000
     17056       149  SAPE      HS             15.1160114300      -25.6091808610      -17.1905427013  MEMB      149             0.0000000000
     17057       149  SAPE      O21            15.2412055428      -24.1920252461      -15.7343965458  MEMB      149             0.0000000000
     17058       149  SAPE      C21            13.9177426294      -24.3340549112      -15.5049659811  MEMB      149             0.0000000000
     17059       149  SAPE      O22            13.2914548910      -25.3049630956      -15.8868849413  MEMB      149             0.0000000000
     17060       149  SAPE      C22            13.3316671439      -23.1808987061      -14.7280896528  MEMB      149             0.0000000000
     17061       149  SAPE      H2R            13.9783720655      -22.2894791051      -14.8745985927  MEMB      149             0.0000000000
     17062       149  SAPE      H2S            12.3337552301      -22.9704746375      -15.1687873420  MEMB      149             0.0000000000
     17063       149  SAPE      C3             16.3412592863      -26.3294491049      -15.5227234261  MEMB      149             0.0000000000
     17064       149  SAPE      HX             17.2447782870      -26.0119216406      -14.9595620632  MEMB      149             0.0000000000
     17065       149  SAPE      HY             16.5472191429      -27.1925175769      -16.1913145385  MEMB      149             0.0000000000
     17066       149  SAPE      O31            15.3077088067      -26.5794889110      -14.5234312010  MEMB      149             0.0000000000
     17067       149  SAPE      C31            14.8913281550      -27.8224140794      -14.2624600546  MEMB      149             0.0000000000
     17068       149  SAPE      O32            15.5607246186      -28.8076730346      -14.4534702323  MEMB      149             0.0000000000
     17069       149  SAPE      C32            13.5044932090      -27.8908612323      -13.6769850603  MEMB      149             0.0000000000
     17070       149  SAPE      H2X            12.9842472487      -28.7694336821      -14.1149066860  MEMB      149             0.0000000000
     17071       149  SAPE      H2Y            13.0590568883      -26.8756774436      -13.7498505386  MEMB      149             0.0000000000
     17072       149  SAPE      C23            13.3336935584      -23.6273177646      -13.2771222980  MEMB      149             0.0000000000
     17073       149  SAPE      H3R            14.3249121664      -23.8340219463      -12.8198694302  MEMB      149             0.0000000000
     17074       149  SAPE      H3S            12.5241044945      -24.3646041428      -13.0892515926  MEMB      149             0.0000000000
     17075       149  SAPE      C24            12.9773586487      -22.4905998548      -12.2367483236  MEMB      149             0.0000000000
     17076       149  SAPE      H4R            12.0715387838      -21.9128575334      -12.5196353103  MEMB      149             0.0000000000
     17077       149  SAPE      H4S            13.7487885662      -21.6941223643      -12.1671785278  MEMB      149             0.0000000000
     17078       149  SAPE      C25            12.6194660791      -23.0766590964      -10.9569439647  MEMB      149             0.0000000000
     17079       149  SAPE      H5R            11.6583513674      -23.6112879928      -10.9776805243  MEMB      149             0.0000000000
     17080       149  SAPE      C26            13.3737164560      -22.9789748850       -9.8675568481  MEMB      149             0.0000000000
     17081       149  SAPE      H6R            12.9845211052      -23.3668947549       -8.9146433335  MEMB      149             0.0000000000
     17082       149  SAPE      C27            14.7022783498      -22.2798772946       -9.7029723555  MEMB      149             0.0000000000
     17083       149  SAPE      H7R            14.6573539032      -21.6961378685       -8.7587525509  MEMB      149             0.0000000000
     17084       149  SAPE      H7S            14.9034085047      -21.5546898121      -10.5202667264  MEMB      149             0.0000000000
     17085       149  SAPE      C28            15.8551845053      -23.3728477442       -9.6289258177  MEMB      149             0.0000000000
     17086       149  SAPE      H8R            16.0151859591      -23.8610836839      -10.6015644130  MEMB      149             0.0000000000
     17087       149  SAPE      C29            16.6159940955      -23.8372532996       -8.5950314153  MEMB      149             0.0000000000
     17088       149  SAPE      H9R            17.4963443978      -24.4568683590       -8.8209974690  MEMB      149             0.0000000000
     17089       149  SAPE      C210           16.4902983588      -23.3363109693       -7.1964889438  MEMB      149             0.0000000000
     17090       149  SAPE      H10R           16.0467369035      -24.2345178330       -6.7160744527  MEMB      149             0.0000000000
     17091       149  SAPE      H10S           15.7207708338      -22.5380090553       -7.1267571076  MEMB      149             0.0000000000
     17092       149  SAPE      C211           17.8214540086      -22.9569683539       -6.5790804161  MEMB      149             0.0000000000
     17093       149  SAPE      H11R           18.2468660700      -21.9745620564       -6.8318682079  MEMB      149             0.0000000000
     17094       149  SAPE      C212           18.6504482724      -23.7297252596       -5.7780726858  MEMB      149             0.0000000000
     17095       149  SAPE      H12R           19.6429516199      -23.3765338942       -5.4615404203  MEMB      149             0.0000000000
     17096       149  SAPE      C213           18.3781633535      -25.1172493874       -5.3805531396  MEMB      149             0.0000000000
     17097       149  SAPE      H13R           17.6257085651      -25.5858022353       -6.0503227193  MEMB      149             0.0000000000
     17098       149  SAPE      H13S           17.9212578601      -24.9005451631       -4.3913130773  MEMB      149             0.0000000000
     17099       149  SAPE      C214           19.5677023410      -26.0510535757       -5.1797376695  MEMB      149             0.0000000000
     17100       149  SAPE      H14R           20.5010708815      -25.6511019407       -5.6026584880  MEMB      149             0.0000000000
     17101       149  SAPE      C215           19.4380973231      -27.2777956410       -4.6508928035  MEMB      149             0.0000000000
     17102       149  SAPE      H15R           20.3318748859      -27.8925700585       -4.4686458116  MEMB      149             0.0000000000
     17103       149  SAPE      C216           18.2169095687      -28.0385668116       -4.1321203101  MEMB      149             0.0000000000
     17104       149  SAPE      H16R           18.3155454964      -29.1410551924       -4.0366664337  MEMB      149             0.0000000000
     17105       149  SAPE      H16S           17.2488236840      -27.8585649689       -4.6466397275  MEMB      149             0.0000000000
     17106       149  SAPE      C217           17.8109202868      -27.6110218641       -2.6941348855  MEMB      149             0.0000000000
     17107       149  SAPE      H17R           16.8061687511      -27.9829666181       -2.4001074545  MEMB      149             0.0000000000
     17108       149  SAPE      H17S           17.8416311999      -26.5027875388       -2.6220611989  MEMB      149             0.0000000000
     17109       149  SAPE      C218           18.7697957216      -28.2219510681       -1.6385492924  MEMB      149             0.0000000000
     17110       149  SAPE      H18R           19.6701222658      -27.5711094120       -1.6503097907  MEMB      149             0.0000000000
     17111       149  SAPE      H18S           19.0314383798      -29.2543849419       -1.9546887591  MEMB      149             0.0000000000
     17112       149  SAPE      C219           18.3239364491      -28.1057655394       -0.1643568061  MEMB      149             0.0000000000
     17113       149  SAPE      H19R           17.4527195266      -28.7545933237        0.0687174162  MEMB      149             0.0000000000
     17114       149  SAPE      H19S           17.8309258409      -27.1197348665       -0.0264982756  MEMB      149             0.0000000000
     17115       149  SAPE      C220           19.4412415168      -28.4688665350        0.8395825345  MEMB      149             0.0000000000
     17116       149  SAPE      H20R           19.0777536478      -28.2789927154        1.8721253500  MEMB      149             0.0000000000
     17117       149  SAPE      H20S           20.2674094185      -27.7985486222        0.5195159429  MEMB      149             0.0000000000
     17118       149  SAPE      H20T           19.7426400552      -29.5310819962        0.7163817193  MEMB      149             0.0000000000
     17119       149  SAPE      C33            13.7213594719      -28.2478620011      -12.1671044598  MEMB      149             0.0000000000
     17120       149  SAPE      H3X            14.5690403664      -28.9654005986      -12.1371649632  MEMB      149             0.0000000000
     17121       149  SAPE      H3Y            12.8045828220      -28.7739799008      -11.8249899396  MEMB      149             0.0000000000
     17122       149  SAPE      C34            13.8072143264      -26.9947211656      -11.2893150116  MEMB      149             0.0000000000
     17123       149  SAPE      H4X            12.8984999378      -26.3791718518      -11.4615295958  MEMB      149             0.0000000000
     17124       149  SAPE      H4Y            14.6831866268      -26.4145420985      -11.6504044719  MEMB      149             0.0000000000
     17125       149  SAPE      C35            14.0615559816      -27.3453304698       -9.7667757367  MEMB      149             0.0000000000
     17126       149  SAPE      H5X            14.0611810399      -26.3905143881       -9.1987551586  MEMB      149             0.0000000000
     17127       149  SAPE      H5Y            15.0937848241      -27.7510778938       -9.7020179034  MEMB      149             0.0000000000
     17128       149  SAPE      C36            13.0524721778      -28.2934494476       -9.1018964491  MEMB      149             0.0000000000
     17129       149  SAPE      H6X            13.3521958883      -28.6206740841       -8.0833624769  MEMB      149             0.0000000000
     17130       149  SAPE      H6Y            13.0899252247      -29.2153448525       -9.7207875948  MEMB      149             0.0000000000
     17131       149  SAPE      C37            11.6556830655      -27.7214042911       -9.0461456791  MEMB      149             0.0000000000
     17132       149  SAPE      H7X            11.0449733648      -28.4914446120       -8.5280802429  MEMB      149             0.0000000000
     17133       149  SAPE      H7Y            11.3137556386      -27.5751729431      -10.0930569284  MEMB      149             0.0000000000
     17134       149  SAPE      C38            11.5063768981      -26.4341666584       -8.2420956008  MEMB      149             0.0000000000
     17135       149  SAPE      H8X            10.4096356449      -26.2728691656       -8.3160021891  MEMB      149             0.0000000000
     17136       149  SAPE      H8Y            12.0438384726      -25.5469939607       -8.6400669189  MEMB      149             0.0000000000
     17137       149  SAPE      C39            11.8630981907      -26.5598696069       -6.7035880347  MEMB      149             0.0000000000
     17138       149  SAPE      H9X            12.8885625084      -26.9867551055       -6.7262374792  MEMB      149             0.0000000000
     17139       149  SAPE      H9Y            11.1672005228      -27.2970098940       -6.2489767266  MEMB      149             0.0000000000
     17140       149  SAPE      C310           11.7511089785      -25.2224448935       -5.9935705124  MEMB      149             0.0000000000
     17141       149  SAPE      H10X           10.7252041935      -24.8027068892       -5.9183348880  MEMB      149             0.0000000000
     17142       149  SAPE      H10Y           12.4291508428      -24.5664203721       -6.5802658303  MEMB      149             0.0000000000
     17143       149  SAPE      C311           12.2536819012      -25.1122220741       -4.5651798247  MEMB      149             0.0000000000
     17144       149  SAPE      H11X           11.5235536837      -25.2336971945       -3.7366398486  MEMB      149             0.0000000000
     17145       149  SAPE      H11Y           12.7093892338      -24.1060379212       -4.4458248440  MEMB      149             0.0000000000
     17146       149  SAPE      C312           13.4063976362      -26.0300564850       -4.2737441832  MEMB      149             0.0000000000
     17147       149  SAPE      H12X           14.3152509711      -25.7627931207       -4.8541545247  MEMB      149             0.0000000000
     17148       149  SAPE      H12Y           13.0614087652      -27.0352671925       -4.5975574932  MEMB      149             0.0000000000
     17149       149  SAPE      C313           13.8622006511      -26.0685315553       -2.7899740249  MEMB      149             0.0000000000
     17150       149  SAPE      H13X           14.3897589622      -27.0191542512       -2.5612408849  MEMB      149             0.0000000000
     17151       149  SAPE      H13Y           12.9789539509      -26.0660723646       -2.1160378004  MEMB      149             0.0000000000
     17152       149  SAPE      C314           14.7801249310      -24.8952746935       -2.3654433142  MEMB      149             0.0000000000
     17153       149  SAPE      H14X           14.3103411489      -23.9281573511       -2.6452799542  MEMB      149             0.0000000000
     17154       149  SAPE      H14Y           15.7651092996      -25.0442718364       -2.8573038004  MEMB      149             0.0000000000
     17155       149  SAPE      C315           15.0864047542      -24.8601559725       -0.8527615002  MEMB      149             0.0000000000
     17156       149  SAPE      H15X           15.9741463311      -24.2589510758       -0.5615763100  MEMB      149             0.0000000000
     17157       149  SAPE      H15Y           15.1159724159      -25.9091359442       -0.4879490516  MEMB      149             0.0000000000
     17158       149  SAPE      C316           13.8264798180      -24.2608453142       -0.0435943732  MEMB      149             0.0000000000
     17159       149  SAPE      H16X           12.8941053811      -24.7384211852       -0.4136220674  MEMB      149             0.0000000000
     17160       149  SAPE      H16Y           13.7761059266      -23.1533905929        0.0293982167  MEMB      149             0.0000000000
     17161       149  SAPE      C317           13.7872809250      -24.8242074122        1.3930951487  MEMB      149             0.0000000000
     17162       149  SAPE      H17X           13.9828648731      -25.9159526662        1.4575948019  MEMB      149             0.0000000000
     17163       149  SAPE      H17Y           12.7164103049      -24.7423079374        1.6774339314  MEMB      149             0.0000000000
     17164       149  SAPE      C318           14.6615254347      -24.0584016620        2.4075023818  MEMB      149             0.0000000000
     17165       149  SAPE      H18X           14.3646021137      -24.3307375617        3.4428736239  MEMB      149             0.0000000000
     17166       149  SAPE      H18Y           14.5626701533      -22.9577179040        2.2932960128  MEMB      149             0.0000000000
     17167       149  SAPE      H18Z           15.7358349820      -24.2435384903        2.1932516487  MEMB      149             0.0000000000
     17168       150  OSM       N             -27.7819961676        8.2800113264      -22.3314515750  MEMB      150             0.0000000000
     17169       150  OSM       C15           -27.8320561459        9.4999637291      -21.4339733490  MEMB      150             0.0000000000
     17170       150  OSM       H15A          -28.8884393561        9.6720685001      -21.2896322191  MEMB      150             0.0000000000
     17171       150  OSM       H15B          -27.2339193772       10.3079489364      -21.8286787121  MEMB      150             0.0000000000
     17172       150  OSM       H15C          -27.4824111101        9.1903701315      -20.4601663026  MEMB      150             0.0000000000
     17173       150  OSM       C14           -28.4561167185        8.6073198605      -23.6549602743  MEMB      150             0.0000000000
     17174       150  OSM       H14A          -28.1001687587        9.5368459513      -24.0741046558  MEMB      150             0.0000000000
     17175       150  OSM       H14B          -29.5131713046        8.7945652823      -23.5367452636  MEMB      150             0.0000000000
     17176       150  OSM       H14C          -28.4985420016        7.8015635147      -24.3728436174  MEMB      150             0.0000000000
     17177       150  OSM       C13           -26.3247254323        7.9259912299      -22.4720018116  MEMB      150             0.0000000000
     17178       150  OSM       H13A          -25.8675197696        8.7859875711      -22.9386593783  MEMB      150             0.0000000000
     17179       150  OSM       H13B          -26.0524510414        6.9865712769      -22.9299942286  MEMB      150             0.0000000000
     17180       150  OSM       H13C          -26.0455101650        7.5126777656      -21.5140816706  MEMB      150             0.0000000000
     17181       150  OSM       C12           -28.5644188184        7.1895376808      -21.6652118691  MEMB      150             0.0000000000
     17182       150  OSM       H12A          -28.1077741341        7.1342961190      -20.6880609027  MEMB      150             0.0000000000
     17183       150  OSM       H12B          -28.3582894565        6.2075209035      -22.0646539099  MEMB      150             0.0000000000
     17184       150  OSM       C11           -30.0833060943        7.2251671411      -21.5249736140  MEMB      150             0.0000000000
     17185       150  OSM       H11A          -30.2871883853        6.3172825298      -20.9179326060  MEMB      150             0.0000000000
     17186       150  OSM       H11B          -30.5541201020        7.1751034765      -22.5300352532  MEMB      150             0.0000000000
     17187       150  OSM       P             -31.5431088099        8.3832896680      -19.5869892913  MEMB      150             0.0000000000
     17188       150  OSM       O13           -31.5445932154        9.6564890610      -18.8331912506  MEMB      150             0.0000000000
     17189       150  OSM       O14           -32.8777865789        7.9718355609      -20.1139912597  MEMB      150             0.0000000000
     17190       150  OSM       O11           -30.9780332866        7.2469722423      -18.5758968884  MEMB      150             0.0000000000
     17191       150  OSM       O12           -30.5646569368        8.3203714330      -20.8073588208  MEMB      150             0.0000000000
     17192       150  OSM       C1S           -29.6543114146        7.0188531126      -18.1572985654  MEMB      150             0.0000000000
     17193       150  OSM       H1S           -28.9624027528        7.6033582698      -18.8006779068  MEMB      150             0.0000000000
     17194       150  OSM       H1T           -29.3142331888        5.9814923957      -18.3635759035  MEMB      150             0.0000000000
     17195       150  OSM       NF            -28.1694590056        7.4377151552      -16.3527707792  MEMB      150             0.0000000000
     17196       150  OSM       HNF           -27.5700882548        6.6935414917      -16.0682201929  MEMB      150             0.0000000000
     17197       150  OSM       C2S           -29.5634181180        7.0938287145      -16.6491768303  MEMB      150             0.0000000000
     17198       150  OSM       H2S           -30.2070500081        7.9075105339      -16.2517087125  MEMB      150             0.0000000000
     17199       150  OSM       C3S           -29.9892650001        5.8239664550      -16.0774778460  MEMB      150             0.0000000000
     17200       150  OSM       H3S           -29.4817135502        4.9404134058      -16.5202493029  MEMB      150             0.0000000000
     17201       150  OSM       O3            -31.3996073690        5.5039048390      -16.2762092221  MEMB      150             0.0000000000
     17202       150  OSM       HO3           -31.6772850625        6.2745927214      -16.7767438148  MEMB      150             0.0000000000
     17203       150  OSM       C4S           -29.6754847541        5.8480116224      -14.6443459638  MEMB      150             0.0000000000
     17204       150  OSM       H4S           -30.1888667015        6.5999380088      -14.0270572491  MEMB      150             0.0000000000
     17205       150  OSM       C5S           -28.9366129725        4.9078425101      -14.0875198092  MEMB      150             0.0000000000
     17206       150  OSM       H5S           -28.5512604760        4.1781702358      -14.8148999162  MEMB      150             0.0000000000
     17207       150  OSM       C6S           -28.5122613156        4.8542668808      -12.6381538245  MEMB      150             0.0000000000
     17208       150  OSM       H6S           -27.4894878839        5.2799560831      -12.5542239855  MEMB      150             0.0000000000
     17209       150  OSM       H6T           -28.4816825658        3.7812798953      -12.3516488277  MEMB      150             0.0000000000
     17210       150  OSM       C7S           -29.4043863142        5.5245547628      -11.5229879195  MEMB      150             0.0000000000
     17211       150  OSM       H7S           -30.2945142555        4.8650509231      -11.6069406156  MEMB      150             0.0000000000
     17212       150  OSM       H7T           -29.6894797130        6.5655198308      -11.7864923862  MEMB      150             0.0000000000
     17213       150  OSM       C8S           -28.8233849799        5.4299712889      -10.1821899982  MEMB      150             0.0000000000
     17214       150  OSM       H8S           -27.9237609335        6.0695230444      -10.0558132458  MEMB      150             0.0000000000
     17215       150  OSM       H8T           -28.5176276253        4.3836549008       -9.9675845943  MEMB      150             0.0000000000
     17216       150  OSM       C9S           -29.7707875196        5.8668998277       -8.9570222179  MEMB      150             0.0000000000
     17217       150  OSM       H9S           -30.7848292250        5.7413692060       -9.3932361419  MEMB      150             0.0000000000
     17218       150  OSM       H9T           -29.6299439076        6.9627968572       -8.8408591795  MEMB      150             0.0000000000
     17219       150  OSM       C10S          -29.5186166125        5.0648909171       -7.6678444426  MEMB      150             0.0000000000
     17220       150  OSM       H10S          -28.4088085785        5.0607744736       -7.6165576569  MEMB      150             0.0000000000
     17221       150  OSM       H10T          -29.9050046796        4.0329384236       -7.8096168031  MEMB      150             0.0000000000
     17222       150  OSM       C11S          -30.1020721371        5.7285999473       -6.4701119446  MEMB      150             0.0000000000
     17223       150  OSM       H11S          -31.1451542193        6.1110044903       -6.4783390876  MEMB      150             0.0000000000
     17224       150  OSM       H11T          -29.5496787507        6.6924912303       -6.4603078616  MEMB      150             0.0000000000
     17225       150  OSM       C12S          -29.6072354410        5.0485095621       -5.1732835622  MEMB      150             0.0000000000
     17226       150  OSM       H12S          -28.5033989782        5.0999045687       -5.2882823484  MEMB      150             0.0000000000
     17227       150  OSM       H12T          -29.9797133355        4.0025154147       -5.1348465069  MEMB      150             0.0000000000
     17228       150  OSM       C13S          -30.0386073677        5.6940170912       -3.8383765779  MEMB      150             0.0000000000
     17229       150  OSM       H13S          -29.6975394348        6.7501077755       -3.8900146928  MEMB      150             0.0000000000
     17230       150  OSM       H13T          -29.5390865572        5.0974764019       -3.0453205854  MEMB      150             0.0000000000
     17231       150  OSM       C14S          -31.4906429188        5.5927906051       -3.3592849833  MEMB      150             0.0000000000
     17232       150  OSM       H14S          -31.8581932226        4.5545332650       -3.2135139114  MEMB      150             0.0000000000
     17233       150  OSM       H14T          -32.1557540370        5.8724735444       -4.2041082634  MEMB      150             0.0000000000
     17234       150  OSM       C15S          -31.5824478141        6.4135269300       -2.0481224995  MEMB      150             0.0000000000
     17235       150  OSM       H15S          -30.8012783055        6.0948962996       -1.3252316967  MEMB      150             0.0000000000
     17236       150  OSM       H15T          -32.6056967999        6.2977169116       -1.6311448739  MEMB      150             0.0000000000
     17237       150  OSM       C16S          -31.3918809278        8.0220713929       -2.0731307033  MEMB      150             0.0000000000
     17238       150  OSM       H16S          -30.3503062523        8.2620812294       -2.3761799393  MEMB      150             0.0000000000
     17239       150  OSM       H16T          -31.4458588612        8.2608950826       -0.9894481756  MEMB      150             0.0000000000
     17240       150  OSM       C17S          -32.3596560152        8.8329387250       -2.9386376765  MEMB      150             0.0000000000
     17241       150  OSM       H17S          -32.2790816734        8.3837990759       -3.9516041804  MEMB      150             0.0000000000
     17242       150  OSM       H17T          -31.9431203425        9.8600886488       -3.0146766274  MEMB      150             0.0000000000
     17243       150  OSM       C18S          -33.8100428925        8.7695337258       -2.4897978163  MEMB      150             0.0000000000
     17244       150  OSM       H18S          -33.9084374315        9.1293402868       -1.4432904102  MEMB      150             0.0000000000
     17245       150  OSM       H18T          -34.1847803334        7.7353475287       -2.6458485864  MEMB      150             0.0000000000
     17246       150  OSM       H18U          -34.3803414513        9.4233430998       -3.1837815564  MEMB      150             0.0000000000
     17247       150  OSM       C1F           -27.7609584227        8.7398642868      -16.5095640544  MEMB      150             0.0000000000
     17248       150  OSM       OF            -28.4415968101        9.5962897631      -17.1150387062  MEMB      150             0.0000000000
     17249       150  OSM       C2F           -26.3965931434        9.0769855968      -16.0694187867  MEMB      150             0.0000000000
     17250       150  OSM       H2F           -25.9672218646        9.8133183777      -16.7820024580  MEMB      150             0.0000000000
     17251       150  OSM       H2G           -25.8215355955        8.1309487381      -16.1623930976  MEMB      150             0.0000000000
     17252       150  OSM       C3F           -26.3665860798        9.7200931011      -14.6215169982  MEMB      150             0.0000000000
     17253       150  OSM       H3F           -27.1859620375       10.4633440360      -14.5189380670  MEMB      150             0.0000000000
     17254       150  OSM       H3G           -25.3736102550       10.1346245673      -14.3449609602  MEMB      150             0.0000000000
     17255       150  OSM       C4F           -26.7174313581        8.7109475470      -13.5154147678  MEMB      150             0.0000000000
     17256       150  OSM       H4F           -26.1396080147        7.8178529112      -13.8360749378  MEMB      150             0.0000000000
     17257       150  OSM       H4G           -27.7460242936        8.3040796364      -13.6192214279  MEMB      150             0.0000000000
     17258       150  OSM       C5F           -26.3870218698        9.2774014367      -12.1655680248  MEMB      150             0.0000000000
     17259       150  OSM       H5F           -25.2784174671        9.3453144059      -12.1390130368  MEMB      150             0.0000000000
     17260       150  OSM       H5G           -26.6245782694        8.5676897408      -11.3444727422  MEMB      150             0.0000000000
     17261       150  OSM       C6F           -26.9574819301       10.6901831644      -11.8016798217  MEMB      150             0.0000000000
     17262       150  OSM       H6F           -27.9267185724       10.8491927050      -12.3209272771  MEMB      150             0.0000000000
     17263       150  OSM       H6G           -26.4572589256       11.4971812360      -12.3786137671  MEMB      150             0.0000000000
     17264       150  OSM       C7F           -26.9500328805       11.1019273006      -10.3275660122  MEMB      150             0.0000000000
     17265       150  OSM       H7F           -27.3503336364       12.1242111326      -10.4979066953  MEMB      150             0.0000000000
     17266       150  OSM       H7G           -25.9742544295       11.2793025856       -9.8268502082  MEMB      150             0.0000000000
     17267       150  OSM       C8F           -27.8143842771       10.2532292864       -9.3372857847  MEMB      150             0.0000000000
     17268       150  OSM       H8F           -27.3563660558        9.2433823856       -9.2683709640  MEMB      150             0.0000000000
     17269       150  OSM       H8G           -28.7928684205       10.2092224382       -9.8616456252  MEMB      150             0.0000000000
     17270       150  OSM       C9F           -28.1005877492       10.8515311176       -7.9898203171  MEMB      150             0.0000000000
     17271       150  OSM       H9F           -28.7350804759       11.7431764401       -7.8785192821  MEMB      150             0.0000000000
     17272       150  OSM       C10F          -27.7832501420       10.2819490092       -6.8324310233  MEMB      150             0.0000000000
     17273       150  OSM       H10F          -28.0440637328       10.7906799048       -5.8926601721  MEMB      150             0.0000000000
     17274       150  OSM       C11F          -27.0576887175        8.9428396930       -6.4320486231  MEMB      150             0.0000000000
     17275       150  OSM       H11F          -26.6684674887        8.5265361139       -7.3857355784  MEMB      150             0.0000000000
     17276       150  OSM       H11G          -27.8089021837        8.2472053299       -6.0006645738  MEMB      150             0.0000000000
     17277       150  OSM       C12F          -25.8132952880        9.0447317560       -5.5173718804  MEMB      150             0.0000000000
     17278       150  OSM       H12F          -25.0189457827        9.5567643832       -6.1014542615  MEMB      150             0.0000000000
     17279       150  OSM       H12G          -25.3488776526        8.0639727843       -5.2791512457  MEMB      150             0.0000000000
     17280       150  OSM       C13F          -26.1678756356        9.7439641652       -4.1288774175  MEMB      150             0.0000000000
     17281       150  OSM       H13F          -26.6005036799       10.7293081353       -4.4050136704  MEMB      150             0.0000000000
     17282       150  OSM       H13G          -25.2283692254        9.8523852848       -3.5458734583  MEMB      150             0.0000000000
     17283       150  OSM       C14F          -27.1560975201        8.9288152965       -3.2966878804  MEMB      150             0.0000000000
     17284       150  OSM       H14F          -26.8677273371        7.8560685404       -3.3161407911  MEMB      150             0.0000000000
     17285       150  OSM       H14G          -28.1882737889        8.9801316161       -3.7044860171  MEMB      150             0.0000000000
     17286       150  OSM       C15F          -27.3281269790        9.1272688839       -1.7170747616  MEMB      150             0.0000000000
     17287       150  OSM       H15F          -27.9730409271        8.3489806819       -1.2559081105  MEMB      150             0.0000000000
     17288       150  OSM       H15G          -27.9051153448       10.0720928234       -1.6237283349  MEMB      150             0.0000000000
     17289       150  OSM       C16F          -26.0535829529        9.3029380892       -0.8858949056  MEMB      150             0.0000000000
     17290       150  OSM       H16F          -26.3215937731        9.5009036698        0.1739640506  MEMB      150             0.0000000000
     17291       150  OSM       H16G          -25.4922850617       10.1166228409       -1.3930269700  MEMB      150             0.0000000000
     17292       150  OSM       C17F          -25.2833208655        7.9901367634       -0.8742019813  MEMB      150             0.0000000000
     17293       150  OSM       H17F          -24.3762639690        8.1165012529       -0.2452326056  MEMB      150             0.0000000000
     17294       150  OSM       H17G          -25.0530820799        7.5634122098       -1.8738091636  MEMB      150             0.0000000000
     17295       150  OSM       C18F          -26.0599658900        6.9070971394       -0.0465298552  MEMB      150             0.0000000000
     17296       150  OSM       H18F          -25.6156064420        5.9258631177       -0.3186433190  MEMB      150             0.0000000000
     17297       150  OSM       H18G          -27.1047209063        6.7697420036       -0.3985847294  MEMB      150             0.0000000000
     17298       150  OSM       H18H          -26.0493416020        7.1731587805        1.0320884326  MEMB      150             0.0000000000
     17299       151  CHL1      C3            -30.8119679893        0.6215463106      -17.2951850000  MEMB      151             0.0000000000
     17300       151  CHL1      H3            -31.7667067020        0.4246216176      -16.7622550000  MEMB      151             0.0000000000
     17301       151  CHL1      O3            -30.9871762107        0.6003844854      -18.7048150000  MEMB      151             0.0000000000
     17302       151  CHL1      H3'           -31.4552913060        1.4289393016      -18.8311850000  MEMB      151             0.0000000000
     17303       151  CHL1      C4            -30.3711311238        2.0223952369      -16.7457450000  MEMB      151             0.0000000000
     17304       151  CHL1      H4A           -29.4922293746        2.5060610374      -17.2231550000  MEMB      151             0.0000000000
     17305       151  CHL1      H4B           -31.2769013354        2.6509391971      -16.8829650000  MEMB      151             0.0000000000
     17306       151  CHL1      C5            -30.1207238112        1.8857406169      -15.2097350000  MEMB      151             0.0000000000
     17307       151  CHL1      C6            -30.6584297880        2.6852869514      -14.3092550000  MEMB      151             0.0000000000
     17308       151  CHL1      H6            -31.3148480881        3.4362890433      -14.7730750000  MEMB      151             0.0000000000
     17309       151  CHL1      C7            -30.3878598311        2.6295516583      -12.8106850000  MEMB      151             0.0000000000
     17310       151  CHL1      H7A           -30.1795079540        3.6064409070      -12.3242550000  MEMB      151             0.0000000000
     17311       151  CHL1      H7B           -31.2206070057        2.1593455513      -12.2452150000  MEMB      151             0.0000000000
     17312       151  CHL1      C8            -29.0761184974        1.7958544417      -12.4568150000  MEMB      151             0.0000000000
     17313       151  CHL1      H8            -28.2122664927        2.4900359482      -12.5354850000  MEMB      151             0.0000000000
     17314       151  CHL1      C14           -29.0044223687        1.4054875982      -11.0703750000  MEMB      151             0.0000000000
     17315       151  CHL1      H14           -29.8057625954        0.6436548315      -10.9618550000  MEMB      151             0.0000000000
     17316       151  CHL1      C15           -29.2984310796        2.3317461781       -9.8931650000  MEMB      151             0.0000000000
     17317       151  CHL1      H15A          -28.7035598447        3.2664247082       -9.9758050000  MEMB      151             0.0000000000
     17318       151  CHL1      H15B          -30.3206074973        2.7642416246       -9.9424450000  MEMB      151             0.0000000000
     17319       151  CHL1      C16           -28.8939081094        1.6952151402       -8.5675650000  MEMB      151             0.0000000000
     17320       151  CHL1      H16A          -28.0160193534        2.2028152057       -8.1137250000  MEMB      151             0.0000000000
     17321       151  CHL1      H16B          -29.7102047812        1.6303255873       -7.8167150000  MEMB      151             0.0000000000
     17322       151  CHL1      C17           -28.3111224517        0.2530123238       -9.0914450000  MEMB      151             0.0000000000
     17323       151  CHL1      H17           -29.2420221820       -0.3533877069       -9.0871250000  MEMB      151             0.0000000000
     17324       151  CHL1      C13           -27.8843913793        0.5260358757      -10.5386850000  MEMB      151             0.0000000000
     17325       151  CHL1      C18           -26.5578678144        1.2937422942      -10.4630650000  MEMB      151             0.0000000000
     17326       151  CHL1      H18A          -25.7754700127        0.5939346373      -10.0991150000  MEMB      151             0.0000000000
     17327       151  CHL1      H18B          -26.3369628614        1.6596937192      -11.4885350000  MEMB      151             0.0000000000
     17328       151  CHL1      H18C          -26.6871715098        2.0959037885       -9.7053550000  MEMB      151             0.0000000000
     17329       151  CHL1      C12           -27.7159462885       -0.7238472259      -11.4444650000  MEMB      151             0.0000000000
     17330       151  CHL1      H12A          -26.7745338075       -1.2832617196      -11.2570850000  MEMB      151             0.0000000000
     17331       151  CHL1      H12B          -28.4516570022       -1.5387257221      -11.2740450000  MEMB      151             0.0000000000
     17332       151  CHL1      C11           -27.6821224333       -0.4042860566      -12.9693450000  MEMB      151             0.0000000000
     17333       151  CHL1      H11A          -26.8266978962        0.2797390583      -13.1555550000  MEMB      151             0.0000000000
     17334       151  CHL1      H11B          -27.5674644911       -1.3563801114      -13.5303250000  MEMB      151             0.0000000000
     17335       151  CHL1      C9            -28.9079734147        0.5243258579      -13.2923450000  MEMB      151             0.0000000000
     17336       151  CHL1      H9            -29.7603811629       -0.1143033201      -12.9763250000  MEMB      151             0.0000000000
     17337       151  CHL1      C10           -29.1354700894        0.7999977200      -14.8282350000  MEMB      151             0.0000000000
     17338       151  CHL1      C19           -27.7549713091        1.2180651482      -15.4485250000  MEMB      151             0.0000000000
     17339       151  CHL1      H19A          -27.1440357054        0.2906035391      -15.4185250000  MEMB      151             0.0000000000
     17340       151  CHL1      H19B          -27.7609951120        1.4853704992      -16.5268650000  MEMB      151             0.0000000000
     17341       151  CHL1      H19C          -27.3418238145        1.9725760026      -14.7454250000  MEMB      151             0.0000000000
     17342       151  CHL1      C1            -29.6077141996       -0.5420483198      -15.4823250000  MEMB      151             0.0000000000
     17343       151  CHL1      H1A           -28.7966505187       -1.2888351196      -15.3451550000  MEMB      151             0.0000000000
     17344       151  CHL1      H1B           -30.5344922050       -0.9132286576      -14.9948450000  MEMB      151             0.0000000000
     17345       151  CHL1      C2            -29.8011938800       -0.4251776829      -17.0293950000  MEMB      151             0.0000000000
     17346       151  CHL1      H2A           -30.1222199673       -1.4345457148      -17.3647050000  MEMB      151             0.0000000000
     17347       151  CHL1      H2B           -28.8769232348       -0.2373977680      -17.6165750000  MEMB      151             0.0000000000
     17348       151  CHL1      C20           -27.3090933841       -0.4090135767       -8.1372550000  MEMB      151             0.0000000000
     17349       151  CHL1      H20           -26.5036164615        0.3196020115       -7.9034550000  MEMB      151             0.0000000000
     17350       151  CHL1      C21           -26.6804228499       -1.7185860802       -8.7369950000  MEMB      151             0.0000000000
     17351       151  CHL1      H21A          -27.4898043353       -2.4433255893       -8.9692950000  MEMB      151             0.0000000000
     17352       151  CHL1      H21B          -26.0769418873       -2.1598792081       -7.9151650000  MEMB      151             0.0000000000
     17353       151  CHL1      H21C          -25.9752074403       -1.5946900345       -9.5864950000  MEMB      151             0.0000000000
     17354       151  CHL1      C22           -28.0173368397       -0.6036397569       -6.7879850000  MEMB      151             0.0000000000
     17355       151  CHL1      H22A          -28.1998877540        0.3941963534       -6.3348650000  MEMB      151             0.0000000000
     17356       151  CHL1      H22B          -28.9753473108       -1.1657981699       -6.8106750000  MEMB      151             0.0000000000
     17357       151  CHL1      C23           -27.2235919646       -1.2969003439       -5.6763550000  MEMB      151             0.0000000000
     17358       151  CHL1      H23A          -27.1705427467       -2.3775090453       -5.9289450000  MEMB      151             0.0000000000
     17359       151  CHL1      H23B          -26.2191611737       -0.8344158889       -5.5688850000  MEMB      151             0.0000000000
     17360       151  CHL1      C24           -27.8197672616       -1.2987783505       -4.2405750000  MEMB      151             0.0000000000
     17361       151  CHL1      H24A          -27.9716458447       -0.2278768982       -3.9867650000  MEMB      151             0.0000000000
     17362       151  CHL1      H24B          -28.7605711466       -1.8727289386       -4.3812750000  MEMB      151             0.0000000000
     17363       151  CHL1      C25           -27.1139796454       -1.9175425328       -3.0159450000  MEMB      151             0.0000000000
     17364       151  CHL1      H25           -26.8029024362       -2.9634579527       -3.2247650000  MEMB      151             0.0000000000
     17365       151  CHL1      C26           -25.8698084631       -1.0476023006       -2.5820650000  MEMB      151             0.0000000000
     17366       151  CHL1      H26A          -25.2703631740       -1.6122174065       -1.8362750000  MEMB      151             0.0000000000
     17367       151  CHL1      H26B          -25.2403165930       -0.8481913659       -3.4755250000  MEMB      151             0.0000000000
     17368       151  CHL1      H26C          -26.1978260009       -0.0535680658       -2.2097450000  MEMB      151             0.0000000000
     17369       151  CHL1      C27           -28.0105246073       -1.8200232456       -1.8612550000  MEMB      151             0.0000000000
     17370       151  CHL1      H27A          -28.4006500110       -0.7797919310       -1.8544550000  MEMB      151             0.0000000000
     17371       151  CHL1      H27B          -28.9878043608       -2.3129285630       -2.0517350000  MEMB      151             0.0000000000
     17372       151  CHL1      H27C          -27.5657233337       -2.0622609966       -0.8724150000  MEMB      151             0.0000000000
     17373       152  OSM       N             -23.6929291557       22.2913475112      -21.9495678988  MEMB      152             0.0000000000
     17374       152  OSM       C15           -22.7551320672       22.7489165623      -20.9132682058  MEMB      152             0.0000000000
     17375       152  OSM       H15A          -23.3643767857       23.4176011959      -20.3232836959  MEMB      152             0.0000000000
     17376       152  OSM       H15B          -22.0242851938       23.3171784987      -21.4694526308  MEMB      152             0.0000000000
     17377       152  OSM       H15C          -22.2427716653       21.9534422836      -20.3925883298  MEMB      152             0.0000000000
     17378       152  OSM       C14           -24.4733381572       23.5232646325      -22.3458468315  MEMB      152             0.0000000000
     17379       152  OSM       H14A          -25.0814805661       23.3488256047      -23.2211376249  MEMB      152             0.0000000000
     17380       152  OSM       H14B          -23.7495027171       24.2704350784      -22.6360165547  MEMB      152             0.0000000000
     17381       152  OSM       H14C          -25.1259600765       23.8528841350      -21.5509659165  MEMB      152             0.0000000000
     17382       152  OSM       C13           -22.8638300734       21.7415569418      -23.1535913310  MEMB      152             0.0000000000
     17383       152  OSM       H13A          -23.5629271215       21.5693437314      -23.9585795000  MEMB      152             0.0000000000
     17384       152  OSM       H13B          -22.4423994028       20.7900693547      -22.8646839950  MEMB      152             0.0000000000
     17385       152  OSM       H13C          -22.1478708381       22.5305937194      -23.3302929323  MEMB      152             0.0000000000
     17386       152  OSM       C12           -24.6443047185       21.1611419328      -21.3932777349  MEMB      152             0.0000000000
     17387       152  OSM       H12A          -25.5462069791       21.2767684731      -21.9760322583  MEMB      152             0.0000000000
     17388       152  OSM       H12B          -24.9981819010       21.4665730002      -20.4196850525  MEMB      152             0.0000000000
     17389       152  OSM       C11           -24.1883186207       19.6513127042      -21.3977725993  MEMB      152             0.0000000000
     17390       152  OSM       H11A          -24.4574740023       19.0741648898      -22.3081443740  MEMB      152             0.0000000000
     17391       152  OSM       H11B          -24.7416286587       19.1239248952      -20.5915275245  MEMB      152             0.0000000000
     17392       152  OSM       P             -22.0114960695       19.1689384841      -19.9481362460  MEMB      152             0.0000000000
     17393       152  OSM       O13           -21.7399822241       17.7049851599      -19.9607438520  MEMB      152             0.0000000000
     17394       152  OSM       O14           -20.8039052912       20.0152143644      -19.7942984373  MEMB      152             0.0000000000
     17395       152  OSM       O11           -23.1836447150       19.5862575775      -18.9132112720  MEMB      152             0.0000000000
     17396       152  OSM       O12           -22.7480402104       19.5818955323      -21.2302855895  MEMB      152             0.0000000000
     17397       152  OSM       C1S           -23.2472940151       18.9465222818      -17.6841514801  MEMB      152             0.0000000000
     17398       152  OSM       H1S           -22.5931403666       18.0527821221      -17.5967857585  MEMB      152             0.0000000000
     17399       152  OSM       H1T           -24.2656297297       18.5331911844      -17.5214531461  MEMB      152             0.0000000000
     17400       152  OSM       NF            -22.6159988019       19.1627009393      -15.2732877175  MEMB      152             0.0000000000
     17401       152  OSM       HNF           -23.3182474441       19.0810028362      -14.5703072866  MEMB      152             0.0000000000
     17402       152  OSM       C2S           -22.9151545519       19.8907325470      -16.4941425117  MEMB      152             0.0000000000
     17403       152  OSM       H2S           -22.0357681014       20.5457966543      -16.6727243294  MEMB      152             0.0000000000
     17404       152  OSM       C3S           -24.2400231511       20.8482993849      -16.2423234541  MEMB      152             0.0000000000
     17405       152  OSM       H3S           -25.1116183421       20.1715305785      -16.1133791548  MEMB      152             0.0000000000
     17406       152  OSM       O3            -24.4955893450       21.7823731319      -17.2686860933  MEMB      152             0.0000000000
     17407       152  OSM       HO3           -23.6441535353       21.8004920334      -17.7117760498  MEMB      152             0.0000000000
     17408       152  OSM       C4S           -24.0303949852       21.6022990555      -14.9677976853  MEMB      152             0.0000000000
     17409       152  OSM       H4S           -23.0606353057       22.1147271005      -14.8842289809  MEMB      152             0.0000000000
     17410       152  OSM       C5S           -24.9213421454       21.6983568640      -13.9982287811  MEMB      152             0.0000000000
     17411       152  OSM       H5S           -25.8972530652       21.1992637122      -14.0904450253  MEMB      152             0.0000000000
     17412       152  OSM       C6S           -24.7576372304       22.4665298787      -12.6920450677  MEMB      152             0.0000000000
     17413       152  OSM       H6S           -25.3357288995       23.4121422880      -12.7691698847  MEMB      152             0.0000000000
     17414       152  OSM       H6T           -23.7197145016       22.8492833717      -12.5893936214  MEMB      152             0.0000000000
     17415       152  OSM       C7S           -25.2434392308       21.6074898093      -11.4769800267  MEMB      152             0.0000000000
     17416       152  OSM       H7S           -24.8337332892       20.5755662886      -11.5169244914  MEMB      152             0.0000000000
     17417       152  OSM       H7T           -26.3434959501       21.5099292060      -11.5981333394  MEMB      152             0.0000000000
     17418       152  OSM       C8S           -24.8403921201       22.2348840249      -10.0991277160  MEMB      152             0.0000000000
     17419       152  OSM       H8S           -25.4146870428       21.8287573238       -9.2391466055  MEMB      152             0.0000000000
     17420       152  OSM       H8T           -25.0990921090       23.3143279687      -10.0522687506  MEMB      152             0.0000000000
     17421       152  OSM       C9S           -23.3692377751       22.1206055535       -9.8037304416  MEMB      152             0.0000000000
     17422       152  OSM       H9S           -23.0557621424       22.8834545846       -9.0593411915  MEMB      152             0.0000000000
     17423       152  OSM       H9T           -22.9351458903       22.4605257839      -10.7682714930  MEMB      152             0.0000000000
     17424       152  OSM       C10S          -22.8868857104       20.7440767461       -9.3127054430  MEMB      152             0.0000000000
     17425       152  OSM       H10S          -21.7810710167       20.8510310624       -9.3201694702  MEMB      152             0.0000000000
     17426       152  OSM       H10T          -23.0552166564       19.9126617569      -10.0301554076  MEMB      152             0.0000000000
     17427       152  OSM       C11S          -23.4658934639       20.2562764652       -7.9529185544  MEMB      152             0.0000000000
     17428       152  OSM       H11S          -23.0699633022       19.2562250820       -7.6746062895  MEMB      152             0.0000000000
     17429       152  OSM       H11T          -24.5745663464       20.3281479453       -7.9528611537  MEMB      152             0.0000000000
     17430       152  OSM       C12S          -22.8777983591       21.0698899875       -6.7660686092  MEMB      152             0.0000000000
     17431       152  OSM       H12S          -23.0817310890       22.1617041359       -6.7920340155  MEMB      152             0.0000000000
     17432       152  OSM       H12T          -21.7753680837       21.0635578588       -6.6284874396  MEMB      152             0.0000000000
     17433       152  OSM       C13S          -23.4100791587       20.4843751395       -5.4455943825  MEMB      152             0.0000000000
     17434       152  OSM       H13S          -23.2193889586       19.3960010184       -5.3298355772  MEMB      152             0.0000000000
     17435       152  OSM       H13T          -24.5101240247       20.6303642066       -5.4995348383  MEMB      152             0.0000000000
     17436       152  OSM       C14S          -23.0947608946       21.3483584880       -4.1386177770  MEMB      152             0.0000000000
     17437       152  OSM       H14S          -23.7436682431       20.9816517395       -3.3147442468  MEMB      152             0.0000000000
     17438       152  OSM       H14T          -23.2524767880       22.4296428738       -4.3392923880  MEMB      152             0.0000000000
     17439       152  OSM       C15S          -21.6867485755       21.0955076611       -3.6084778820  MEMB      152             0.0000000000
     17440       152  OSM       H15S          -20.9950307744       21.2670515486       -4.4607803811  MEMB      152             0.0000000000
     17441       152  OSM       H15T          -21.5252618345       20.0258030521       -3.3555449783  MEMB      152             0.0000000000
     17442       152  OSM       C16S          -21.3268689882       21.9099289950       -2.3854756045  MEMB      152             0.0000000000
     17443       152  OSM       H16S          -22.3060604003       21.8532514474       -1.8636593126  MEMB      152             0.0000000000
     17444       152  OSM       H16T          -21.0722374332       22.9560399420       -2.6595865110  MEMB      152             0.0000000000
     17445       152  OSM       C17S          -20.1015533882       21.4313474299       -1.5274757033  MEMB      152             0.0000000000
     17446       152  OSM       H17S          -20.3697069246       20.4442499274       -1.0938256581  MEMB      152             0.0000000000
     17447       152  OSM       H17T          -19.9749818268       22.0680152128       -0.6258357079  MEMB      152             0.0000000000
     17448       152  OSM       C18S          -18.8877412295       21.3465194992       -2.4244353981  MEMB      152             0.0000000000
     17449       152  OSM       H18S          -18.6936237836       22.3248733496       -2.9137835280  MEMB      152             0.0000000000
     17450       152  OSM       H18T          -18.9298799473       20.7262710437       -3.3452160553  MEMB      152             0.0000000000
     17451       152  OSM       H18U          -17.9799370733       20.9978889304       -1.8871554816  MEMB      152             0.0000000000
     17452       152  OSM       C1F           -21.4948042804       18.4172089481      -15.2188071818  MEMB      152             0.0000000000
     17453       152  OSM       OF            -20.6827248857       18.1645747684      -16.1410778158  MEMB      152             0.0000000000
     17454       152  OSM       C2F           -21.1911618903       17.7432399025      -13.8737993691  MEMB      152             0.0000000000
     17455       152  OSM       H2F           -21.9990106318       17.0076886012      -13.6721417548  MEMB      152             0.0000000000
     17456       152  OSM       H2G           -21.2761018848       18.5158513669      -13.0799621676  MEMB      152             0.0000000000
     17457       152  OSM       C3F           -19.7537404940       17.1731292049      -13.7875810238  MEMB      152             0.0000000000
     17458       152  OSM       H3F           -19.0884070339       18.0315877809      -14.0214641553  MEMB      152             0.0000000000
     17459       152  OSM       H3G           -19.6487639186       16.4164355777      -14.5942501721  MEMB      152             0.0000000000
     17460       152  OSM       C4F           -19.2745385148       16.6692946170      -12.3701789293  MEMB      152             0.0000000000
     17461       152  OSM       H4F           -18.2713346373       16.1935820257      -12.3301681225  MEMB      152             0.0000000000
     17462       152  OSM       H4G           -19.9962757550       15.8364249619      -12.2296663222  MEMB      152             0.0000000000
     17463       152  OSM       C5F           -19.5111784551       17.5687987435      -11.2022620726  MEMB      152             0.0000000000
     17464       152  OSM       H5F           -20.5479669784       17.9680273197      -11.1995864101  MEMB      152             0.0000000000
     17465       152  OSM       H5G           -18.8879149261       18.4833859243      -11.2991817404  MEMB      152             0.0000000000
     17466       152  OSM       C6F           -19.1141248751       16.9630488931       -9.9190908268  MEMB      152             0.0000000000
     17467       152  OSM       H6F           -18.0515982823       16.6648405285      -10.0472719642  MEMB      152             0.0000000000
     17468       152  OSM       H6G           -19.5400312465       15.9630173832       -9.6891743372  MEMB      152             0.0000000000
     17469       152  OSM       C7F           -19.3871815096       17.9997765798       -8.8076302068  MEMB      152             0.0000000000
     17470       152  OSM       H7F           -20.4956424252       18.0732294449       -8.8231181223  MEMB      152             0.0000000000
     17471       152  OSM       H7G           -18.9927660039       19.0094665697       -9.0511118799  MEMB      152             0.0000000000
     17472       152  OSM       C8F           -18.8615227372       17.6555158038       -7.3815911642  MEMB      152             0.0000000000
     17473       152  OSM       H8F           -19.1819494702       18.3796753926       -6.6023349064  MEMB      152             0.0000000000
     17474       152  OSM       H8G           -17.7677416701       17.8440922942       -7.4306112010  MEMB      152             0.0000000000
     17475       152  OSM       C9F           -18.9778608492       16.2503168926       -6.9557250519  MEMB      152             0.0000000000
     17476       152  OSM       H9F           -18.1514710534       15.7024245814       -7.4320588586  MEMB      152             0.0000000000
     17477       152  OSM       C10F          -19.9456692395       15.6905111595       -6.1703357885  MEMB      152             0.0000000000
     17478       152  OSM       H10F          -19.9468639756       14.5918968736       -6.2255167652  MEMB      152             0.0000000000
     17479       152  OSM       C11F          -21.1924993311       16.2447289026       -5.4672964280  MEMB      152             0.0000000000
     17480       152  OSM       H11F          -22.0235605322       15.7733685877       -6.0342865850  MEMB      152             0.0000000000
     17481       152  OSM       H11G          -21.1474659512       17.3500708732       -5.5698249096  MEMB      152             0.0000000000
     17482       152  OSM       C12F          -21.2437842299       16.0135500212       -3.9393741249  MEMB      152             0.0000000000
     17483       152  OSM       H12F          -20.2675929827       16.2824508076       -3.4821393182  MEMB      152             0.0000000000
     17484       152  OSM       H12G          -21.4860060317       14.9355918179       -3.8225160527  MEMB      152             0.0000000000
     17485       152  OSM       C13F          -22.3131919021       16.8713588016       -3.1709338558  MEMB      152             0.0000000000
     17486       152  OSM       H13F          -23.3045931915       16.6918959018       -3.6391628005  MEMB      152             0.0000000000
     17487       152  OSM       H13G          -22.0674844543       17.9283482382       -3.4090983106  MEMB      152             0.0000000000
     17488       152  OSM       C14F          -22.5346260202       16.6370263343       -1.6419324397  MEMB      152             0.0000000000
     17489       152  OSM       H14F          -21.6679732108       16.2805334936       -1.0451520868  MEMB      152             0.0000000000
     17490       152  OSM       H14G          -23.2067357695       15.7548793769       -1.5755521478  MEMB      152             0.0000000000
     17491       152  OSM       C15F          -23.1101846324       17.8418217692       -0.9464213536  MEMB      152             0.0000000000
     17492       152  OSM       H15F          -22.9242592784       18.7480812373       -1.5616004415  MEMB      152             0.0000000000
     17493       152  OSM       H15G          -22.8219682110       17.9092823586        0.1244203026  MEMB      152             0.0000000000
     17494       152  OSM       C16F          -24.6938993612       17.8404268505       -1.0401313503  MEMB      152             0.0000000000
     17495       152  OSM       H16F          -24.8419996900       16.9832586119       -0.3490097884  MEMB      152             0.0000000000
     17496       152  OSM       H16G          -25.0787102146       17.5651271857       -2.0453431775  MEMB      152             0.0000000000
     17497       152  OSM       C17F          -25.4550991642       19.1550400940       -0.6363602263  MEMB      152             0.0000000000
     17498       152  OSM       H17F          -26.5566618193       19.0258616188       -0.7011175629  MEMB      152             0.0000000000
     17499       152  OSM       H17G          -25.1939119258       19.9293820527       -1.3890208513  MEMB      152             0.0000000000
     17500       152  OSM       C18F          -25.1169709437       19.7849283287        0.7019465985  MEMB      152             0.0000000000
     17501       152  OSM       H18F          -25.4095505104       19.0960398535        1.5230137241  MEMB      152             0.0000000000
     17502       152  OSM       H18G          -25.6875816852       20.7304776975        0.8230279178  MEMB      152             0.0000000000
     17503       152  OSM       H18H          -24.0234208921       19.9807920708        0.7122842719  MEMB      152             0.0000000000
     17504       153  SAPS      N             -30.7748933893       -6.8333135034      -21.8182699737  MEMB      153             0.0000000000
     17505       153  SAPS      HN1           -30.2741455518       -6.0763552330      -21.3104650467  MEMB      153             0.0000000000
     17506       153  SAPS      HN2           -30.6349553078       -6.6763292036      -22.8367852506  MEMB      153             0.0000000000
     17507       153  SAPS      HN3           -31.7509818657       -6.7606519323      -21.4667426628  MEMB      153             0.0000000000
     17508       153  SAPS      C12           -30.1603201140       -8.1861857282      -21.4422155291  MEMB      153             0.0000000000
     17509       153  SAPS      H12A          -30.9621528119       -8.8645327292      -21.6938296556  MEMB      153             0.0000000000
     17510       153  SAPS      C13           -29.0658237614       -8.5629227458      -22.4381286831  MEMB      153             0.0000000000
     17511       153  SAPS      O13A          -28.5828403088       -7.7621564084      -23.2456798164  MEMB      153             0.0000000000
     17512       153  SAPS      O13B          -28.7789670221       -9.7823820663      -22.4307548077  MEMB      153             0.0000000000
     17513       153  SAPS      C11           -29.7336591003       -8.3859470339      -19.9851878810  MEMB      153             0.0000000000
     17514       153  SAPS      H11A          -28.7640512313       -7.8452284638      -19.9427023370  MEMB      153             0.0000000000
     17515       153  SAPS      H11B          -29.5198452288       -9.4354821269      -19.6900935401  MEMB      153             0.0000000000
     17516       153  SAPS      P             -30.4409620014       -7.2558887792      -17.7234400660  MEMB      153             0.0000000000
     17517       153  SAPS      O13           -29.1665019015       -6.4188197701      -17.7877555119  MEMB      153             0.0000000000
     17518       153  SAPS      O14           -31.6983930208       -6.5371016557      -17.2946992073  MEMB      153             0.0000000000
     17519       153  SAPS      O12           -30.8109061808       -7.9486727797      -19.1408608357  MEMB      153             0.0000000000
     17520       153  SAPS      O11           -30.3748810929       -8.4545198647      -16.6930077052  MEMB      153             0.0000000000
     17521       153  SAPS      C1            -29.2263491625       -9.3231076738      -16.7160222794  MEMB      153             0.0000000000
     17522       153  SAPS      HA            -29.1258690889       -9.8133079871      -17.7079540316  MEMB      153             0.0000000000
     17523       153  SAPS      HB            -28.3140628825       -8.7056837823      -16.5716527957  MEMB      153             0.0000000000
     17524       153  SAPS      C2            -29.2769394528      -10.3846031916      -15.5434589678  MEMB      153             0.0000000000
     17525       153  SAPS      HS            -28.7662000165      -11.3061139262      -15.8959983497  MEMB      153             0.0000000000
     17526       153  SAPS      O21           -30.6708035487      -10.4944047129      -15.2561981416  MEMB      153             0.0000000000
     17527       153  SAPS      C21           -31.2733502903      -11.6574655600      -15.6781247643  MEMB      153             0.0000000000
     17528       153  SAPS      O22           -30.7656931083      -12.4793414657      -16.4046047425  MEMB      153             0.0000000000
     17529       153  SAPS      C22           -32.6749074672      -11.7053160694      -15.1520506127  MEMB      153             0.0000000000
     17530       153  SAPS      H2R           -32.9220614720      -10.8610430552      -14.4734939702  MEMB      153             0.0000000000
     17531       153  SAPS      H2S           -33.3409863593      -11.6429674346      -16.0390527969  MEMB      153             0.0000000000
     17532       153  SAPS      C3            -28.5654848843       -9.9515566575      -14.2804069113  MEMB      153             0.0000000000
     17533       153  SAPS      HX            -28.8873172998       -8.9403166464      -13.9515627948  MEMB      153             0.0000000000
     17534       153  SAPS      HY            -27.4828600324       -9.8864718305      -14.5212565322  MEMB      153             0.0000000000
     17535       153  SAPS      O31           -28.6589743190      -10.9004047533      -13.2161929802  MEMB      153             0.0000000000
     17536       153  SAPS      C31           -28.2755751739      -10.4353193366      -12.0089286188  MEMB      153             0.0000000000
     17537       153  SAPS      O32           -28.1117586602       -9.2905141139      -11.6683750383  MEMB      153             0.0000000000
     17538       153  SAPS      C32           -28.0719294696      -11.7336313762      -11.1115914057  MEMB      153             0.0000000000
     17539       153  SAPS      H2X           -27.8626409657      -12.6444679710      -11.7123378436  MEMB      153             0.0000000000
     17540       153  SAPS      H2Y           -29.0739845664      -11.8780624046      -10.6540477814  MEMB      153             0.0000000000
     17541       153  SAPS      C23           -32.9387874346      -13.0158759700      -14.3837048940  MEMB      153             0.0000000000
     17542       153  SAPS      H3R           -32.2544999662      -13.8349613191      -14.6922026907  MEMB      153             0.0000000000
     17543       153  SAPS      H3S           -33.9908604988      -13.3140120889      -14.5801187427  MEMB      153             0.0000000000
     17544       153  SAPS      C24           -32.8506158479      -12.9290510888      -12.8130414106  MEMB      153             0.0000000000
     17545       153  SAPS      H4R           -31.8122566204      -12.5935880619      -12.6042447413  MEMB      153             0.0000000000
     17546       153  SAPS      H4S           -32.9455720860      -13.9642021558      -12.4209110350  MEMB      153             0.0000000000
     17547       153  SAPS      C25           -33.9206845182      -12.0958716802      -12.1366810725  MEMB      153             0.0000000000
     17548       153  SAPS      H5R           -34.9886479735      -12.3188851172      -12.2771072233  MEMB      153             0.0000000000
     17549       153  SAPS      C26           -33.8125775490      -11.1309799038      -11.1898277556  MEMB      153             0.0000000000
     17550       153  SAPS      H6R           -34.7438964029      -10.5884982708      -10.9699219401  MEMB      153             0.0000000000
     17551       153  SAPS      C27           -32.5302076611      -10.6265485761      -10.6085398563  MEMB      153             0.0000000000
     17552       153  SAPS      H7R           -31.6821208183      -10.9923802245      -11.2259844465  MEMB      153             0.0000000000
     17553       153  SAPS      H7S           -32.4299046691      -11.0591762305       -9.5901617410  MEMB      153             0.0000000000
     17554       153  SAPS      C28           -32.4589992354       -9.1762819192      -10.4623503259  MEMB      153             0.0000000000
     17555       153  SAPS      H8R           -32.0489645515       -8.5731022744      -11.2857859457  MEMB      153             0.0000000000
     17556       153  SAPS      C29           -32.7887890969       -8.5511627558       -9.3600906023  MEMB      153             0.0000000000
     17557       153  SAPS      H9R           -32.4931986423       -7.4949656136       -9.2759831468  MEMB      153             0.0000000000
     17558       153  SAPS      C210          -33.3268113436       -9.1948693717       -8.0892178064  MEMB      153             0.0000000000
     17559       153  SAPS      H10R          -32.4170379162       -9.3400964975       -7.4682970023  MEMB      153             0.0000000000
     17560       153  SAPS      H10S          -33.9503212000      -10.0787597138       -8.3427810985  MEMB      153             0.0000000000
     17561       153  SAPS      C211          -34.3635416111       -8.4533087855       -7.3757671450  MEMB      153             0.0000000000
     17562       153  SAPS      H11R          -34.9052670105       -7.7279023794       -8.0005224351  MEMB      153             0.0000000000
     17563       153  SAPS      C212          -34.7157603644       -8.6050172415       -6.0551891484  MEMB      153             0.0000000000
     17564       153  SAPS      H12R          -35.6329944435       -8.1260268394       -5.6820264810  MEMB      153             0.0000000000
     17565       153  SAPS      C213          -34.1667762498       -9.5818486801       -5.1211265313  MEMB      153             0.0000000000
     17566       153  SAPS      H13R          -34.7065804685       -9.6128491791       -4.1505743699  MEMB      153             0.0000000000
     17567       153  SAPS      H13S          -33.1472325273       -9.2356123856       -4.8473153376  MEMB      153             0.0000000000
     17568       153  SAPS      C214          -34.1320868697      -10.9605344142       -5.6153438893  MEMB      153             0.0000000000
     17569       153  SAPS      H14R          -35.0638605625      -11.4457028535       -5.9415489893  MEMB      153             0.0000000000
     17570       153  SAPS      C215          -33.1009402713      -11.8440966072       -5.6285881645  MEMB      153             0.0000000000
     17571       153  SAPS      H15R          -33.3437179029      -12.8413112816       -6.0243426127  MEMB      153             0.0000000000
     17572       153  SAPS      C216          -31.6998003311      -11.5983451567       -5.0846895551  MEMB      153             0.0000000000
     17573       153  SAPS      H16R          -31.5221151889      -10.5100607262       -4.9490943588  MEMB      153             0.0000000000
     17574       153  SAPS      H16S          -30.9076052661      -12.0079208068       -5.7472570456  MEMB      153             0.0000000000
     17575       153  SAPS      C217          -31.4129502759      -12.2893038499       -3.6750062272  MEMB      153             0.0000000000
     17576       153  SAPS      H17R          -31.6570675945      -13.3433626954       -3.9273694010  MEMB      153             0.0000000000
     17577       153  SAPS      H17S          -32.1429361125      -11.9642049889       -2.9031558280  MEMB      153             0.0000000000
     17578       153  SAPS      C218          -29.9541670549      -12.1131971953       -3.1200266632  MEMB      153             0.0000000000
     17579       153  SAPS      H18R          -29.7576832365      -11.0198266607       -3.1040117355  MEMB      153             0.0000000000
     17580       153  SAPS      H18S          -29.2544170951      -12.6048309094       -3.8292293964  MEMB      153             0.0000000000
     17581       153  SAPS      C219          -29.7169475376      -12.6366472710       -1.6562728534  MEMB      153             0.0000000000
     17582       153  SAPS      H19R          -29.8750113486      -13.7362425823       -1.6411929888  MEMB      153             0.0000000000
     17583       153  SAPS      H19S          -30.3619911831      -12.1241101668       -0.9109234208  MEMB      153             0.0000000000
     17584       153  SAPS      C220          -28.3695298891      -12.2914626931       -1.1601524133  MEMB      153             0.0000000000
     17585       153  SAPS      H20R          -28.2160074764      -12.8920226380       -0.2381537353  MEMB      153             0.0000000000
     17586       153  SAPS      H20S          -28.3186819596      -11.1961215221       -0.9813706619  MEMB      153             0.0000000000
     17587       153  SAPS      H20T          -27.5433525508      -12.4699677990       -1.8811846402  MEMB      153             0.0000000000
     17588       153  SAPS      C33           -26.8886247977      -11.5465395183      -10.0649689599  MEMB      153             0.0000000000
     17589       153  SAPS      H3X           -25.9271287644      -11.4271669932      -10.6086563054  MEMB      153             0.0000000000
     17590       153  SAPS      H3Y           -26.8637326812      -12.5188298050       -9.5279833869  MEMB      153             0.0000000000
     17591       153  SAPS      C34           -26.9552300428      -10.5793596932       -8.9131100099  MEMB      153             0.0000000000
     17592       153  SAPS      H4X           -26.8955185746       -9.5216653376       -9.2478302359  MEMB      153             0.0000000000
     17593       153  SAPS      H4Y           -26.0254017721      -10.7248408413       -8.3227062283  MEMB      153             0.0000000000
     17594       153  SAPS      C35           -28.2939260779      -10.6965303440       -8.2306193283  MEMB      153             0.0000000000
     17595       153  SAPS      H5X           -28.2735169603      -11.6968187792       -7.7475783253  MEMB      153             0.0000000000
     17596       153  SAPS      H5Y           -29.1855505523      -10.5508523700       -8.8772290114  MEMB      153             0.0000000000
     17597       153  SAPS      C36           -28.3537684487       -9.7635212269       -6.9991713518  MEMB      153             0.0000000000
     17598       153  SAPS      H6X           -27.3722480509       -9.8234219894       -6.4821117091  MEMB      153             0.0000000000
     17599       153  SAPS      H6Y           -28.9954827777      -10.1602333688       -6.1836082597  MEMB      153             0.0000000000
     17600       153  SAPS      C37           -28.8438272558       -8.3285798240       -7.2779050640  MEMB      153             0.0000000000
     17601       153  SAPS      H7X           -29.0966750945       -7.9328007077       -6.2710539741  MEMB      153             0.0000000000
     17602       153  SAPS      H7Y           -29.7419448737       -8.4076712129       -7.9270966131  MEMB      153             0.0000000000
     17603       153  SAPS      C38           -27.8762790481       -7.3825414766       -8.0307954721  MEMB      153             0.0000000000
     17604       153  SAPS      H8X           -27.8615514187       -7.5425441378       -9.1301152718  MEMB      153             0.0000000000
     17605       153  SAPS      H8Y           -26.8417412219       -7.6434177449       -7.7209634302  MEMB      153             0.0000000000
     17606       153  SAPS      C39           -28.0858467685       -5.8391455605       -8.0184534038  MEMB      153             0.0000000000
     17607       153  SAPS      H9X           -27.2132261006       -5.3526945350       -8.5044765336  MEMB      153             0.0000000000
     17608       153  SAPS      H9Y           -28.1367333165       -5.4625790349       -6.9744558802  MEMB      153             0.0000000000
     17609       153  SAPS      C310          -29.3142603957       -5.4108930963       -8.8776993608  MEMB      153             0.0000000000
     17610       153  SAPS      H10X          -30.0920145899       -6.2010685957       -8.8066929036  MEMB      153             0.0000000000
     17611       153  SAPS      H10Y          -29.1091089509       -5.2133680546       -9.9515796432  MEMB      153             0.0000000000
     17612       153  SAPS      C311          -30.0538390159       -4.2245817301       -8.3474828073  MEMB      153             0.0000000000
     17613       153  SAPS      H11X          -30.4222998042       -3.6594692259       -9.2302084932  MEMB      153             0.0000000000
     17614       153  SAPS      H11Y          -29.4304400961       -3.4856725521       -7.8000264610  MEMB      153             0.0000000000
     17615       153  SAPS      C312          -31.3623882788       -4.5529977843       -7.5421829871  MEMB      153             0.0000000000
     17616       153  SAPS      H12X          -32.1552871894       -5.0782272322       -8.1164360510  MEMB      153             0.0000000000
     17617       153  SAPS      H12Y          -31.8152317680       -3.5986818343       -7.1978940846  MEMB      153             0.0000000000
     17618       153  SAPS      C313          -31.0994881465       -5.4002020882       -6.2785591537  MEMB      153             0.0000000000
     17619       153  SAPS      H13X          -30.6552295413       -6.3717367443       -6.5836427113  MEMB      153             0.0000000000
     17620       153  SAPS      H13Y          -32.0360778529       -5.6997106335       -5.7614373271  MEMB      153             0.0000000000
     17621       153  SAPS      C314          -30.2181585706       -4.8306451493       -5.1950833083  MEMB      153             0.0000000000
     17622       153  SAPS      H14X          -30.7739951974       -3.9893614074       -4.7285983984  MEMB      153             0.0000000000
     17623       153  SAPS      H14Y          -29.2983118777       -4.4314004426       -5.6734209630  MEMB      153             0.0000000000
     17624       153  SAPS      C315          -29.7670405717       -5.8135335506       -3.9926250352  MEMB      153             0.0000000000
     17625       153  SAPS      H15X          -29.0022458197       -5.1767392897       -3.4987593443  MEMB      153             0.0000000000
     17626       153  SAPS      H15Y          -29.2522652390       -6.6622145814       -4.4916915842  MEMB      153             0.0000000000
     17627       153  SAPS      C316          -30.9224118231       -6.1950912067       -3.1275745392  MEMB      153             0.0000000000
     17628       153  SAPS      H16X          -31.9410724059       -6.0253788517       -3.5372679953  MEMB      153             0.0000000000
     17629       153  SAPS      H16Y          -30.9131420603       -5.6119650525       -2.1819528476  MEMB      153             0.0000000000
     17630       153  SAPS      C317          -31.1004220757       -7.7389660525       -2.9323718330  MEMB      153             0.0000000000
     17631       153  SAPS      H17X          -30.1373157519       -8.1323838969       -2.5425391001  MEMB      153             0.0000000000
     17632       153  SAPS      H17Y          -31.3116850072       -8.1431905688       -3.9454321433  MEMB      153             0.0000000000
     17633       153  SAPS      C318          -32.1115347600       -8.1638850476       -1.8570566705  MEMB      153             0.0000000000
     17634       153  SAPS      H18X          -32.9986647816       -7.6172663472       -2.2424517989  MEMB      153             0.0000000000
     17635       153  SAPS      H18Y          -31.8608715262       -7.8458825632       -0.8224727238  MEMB      153             0.0000000000
     17636       153  SAPS      H18Z          -32.2726513810       -9.2627649556       -1.8857841896  MEMB      153             0.0000000000
     17637       154  SAPE      N              30.7142946241      -11.0239988988      -18.0495652736  MEMB      154             0.0000000000
     17638       154  SAPE      HN1            31.1686416067      -11.5604237633      -17.2831338298  MEMB      154             0.0000000000
     17639       154  SAPE      HN2            29.7475397311      -10.7521630626      -17.7792129033  MEMB      154             0.0000000000
     17640       154  SAPE      HN3            30.6968807696      -11.5264258855      -18.9599848832  MEMB      154             0.0000000000
     17641       154  SAPE      C12            31.4108206102       -9.7237391708      -18.1573837286  MEMB      154             0.0000000000
     17642       154  SAPE      H12A           32.3418353442       -9.8061862533      -18.7579962024  MEMB      154             0.0000000000
     17643       154  SAPE      H12B           31.7104561191       -9.3391039208      -17.1590875630  MEMB      154             0.0000000000
     17644       154  SAPE      C11            30.4940564868       -8.6574180153      -18.8988689882  MEMB      154             0.0000000000
     17645       154  SAPE      H11A           31.1473968435       -7.8753619446      -19.3414249098  MEMB      154             0.0000000000
     17646       154  SAPE      H11B           29.8851038144       -8.1255776939      -18.1368694147  MEMB      154             0.0000000000
     17647       154  SAPE      P              28.9129114082       -8.4927821834      -21.0569076924  MEMB      154             0.0000000000
     17648       154  SAPE      O13            30.0372372625       -7.9343926129      -21.8775725137  MEMB      154             0.0000000000
     17649       154  SAPE      O14            27.7794524058       -9.3315519635      -21.7186503452  MEMB      154             0.0000000000
     17650       154  SAPE      O12            29.6844535862       -9.2732223091      -19.9441650408  MEMB      154             0.0000000000
     17651       154  SAPE      O11            28.3042568202       -7.3104524624      -20.2968863942  MEMB      154             0.0000000000
     17652       154  SAPE      C1             27.0854654602       -7.5655629997      -19.6280965211  MEMB      154             0.0000000000
     17653       154  SAPE      HA             26.3248232495       -7.5694128310      -20.4378678050  MEMB      154             0.0000000000
     17654       154  SAPE      HB             26.9061171822       -8.5789647276      -19.2095607886  MEMB      154             0.0000000000
     17655       154  SAPE      C2             26.7693937965       -6.5473966137      -18.4013729000  MEMB      154             0.0000000000
     17656       154  SAPE      HS             26.9171747725       -5.5376410791      -18.8405488152  MEMB      154             0.0000000000
     17657       154  SAPE      O21            27.7972197149       -6.7805037820      -17.4278197367  MEMB      154             0.0000000000
     17658       154  SAPE      C21            27.8374196892       -5.9490892224      -16.3237962872  MEMB      154             0.0000000000
     17659       154  SAPE      O22            27.0400077929       -5.0423154317      -16.1468452768  MEMB      154             0.0000000000
     17660       154  SAPE      C22            29.0062351174       -6.4073746505      -15.4460935617  MEMB      154             0.0000000000
     17661       154  SAPE      H2R            29.2292865483       -7.4735086000      -15.6650171660  MEMB      154             0.0000000000
     17662       154  SAPE      H2S            29.9046418704       -5.8088018034      -15.7085750700  MEMB      154             0.0000000000
     17663       154  SAPE      C3             25.3523027146       -6.8600083726      -17.7773696600  MEMB      154             0.0000000000
     17664       154  SAPE      HX             24.7635042207       -6.7646081669      -18.7146722458  MEMB      154             0.0000000000
     17665       154  SAPE      HY             24.9577593446       -6.2120076406      -16.9657349489  MEMB      154             0.0000000000
     17666       154  SAPE      O31            25.1798385876       -8.1780922786      -17.4059392217  MEMB      154             0.0000000000
     17667       154  SAPE      C31            25.0157027432       -8.4547662670      -16.0928289433  MEMB      154             0.0000000000
     17668       154  SAPE      O32            24.9418572965       -7.6122359299      -15.2229663185  MEMB      154             0.0000000000
     17669       154  SAPE      C32            24.9323528924       -9.9414124511      -15.8510874119  MEMB      154             0.0000000000
     17670       154  SAPE      H2X            23.8644262801      -10.2415253136      -15.9126183198  MEMB      154             0.0000000000
     17671       154  SAPE      H2Y            25.2012785431      -10.2412665646      -14.8156707635  MEMB      154             0.0000000000
     17672       154  SAPE      C23            28.6382597826       -6.2583650743      -13.9993889025  MEMB      154             0.0000000000
     17673       154  SAPE      H3R            27.5296949010       -6.2133718784      -13.9412471685  MEMB      154             0.0000000000
     17674       154  SAPE      H3S            29.2056711032       -5.3762537187      -13.6329944568  MEMB      154             0.0000000000
     17675       154  SAPE      C24            29.2284937101       -7.4605213591      -13.2057607205  MEMB      154             0.0000000000
     17676       154  SAPE      H4R            30.2155928330       -7.5999289837      -13.6961911161  MEMB      154             0.0000000000
     17677       154  SAPE      H4S            28.6524058508       -8.3308109746      -13.5866016871  MEMB      154             0.0000000000
     17678       154  SAPE      C25            29.2309332504       -7.3230725885      -11.7123693784  MEMB      154             0.0000000000
     17679       154  SAPE      H5R            30.0826931845       -6.7587267319      -11.3049154940  MEMB      154             0.0000000000
     17680       154  SAPE      C26            28.0917495022       -7.4968225433      -10.9907991621  MEMB      154             0.0000000000
     17681       154  SAPE      H6R            28.1452279774       -7.3936287203       -9.8969568172  MEMB      154             0.0000000000
     17682       154  SAPE      C27            26.6586014278       -7.8619292100      -11.5059097607  MEMB      154             0.0000000000
     17683       154  SAPE      H7R            26.4441024569       -8.9367029448      -11.6880433935  MEMB      154             0.0000000000
     17684       154  SAPE      H7S            26.5592214485       -7.4697513793      -12.5406279471  MEMB      154             0.0000000000
     17685       154  SAPE      C28            25.4639637539       -7.3668201694      -10.7841056886  MEMB      154             0.0000000000
     17686       154  SAPE      H8R            25.0557152371       -8.1274990850      -10.1024157724  MEMB      154             0.0000000000
     17687       154  SAPE      C29            24.7851334520       -6.2775463257      -10.9476465948  MEMB      154             0.0000000000
     17688       154  SAPE      H9R            23.8758750154       -6.0724307894      -10.3635432834  MEMB      154             0.0000000000
     17689       154  SAPE      C210           24.9572664000       -5.1047683472      -11.9185341789  MEMB      154             0.0000000000
     17690       154  SAPE      H10R           24.2005933135       -5.0836534954      -12.7317504634  MEMB      154             0.0000000000
     17691       154  SAPE      H10S           25.8844892722       -5.1759709909      -12.5264068340  MEMB      154             0.0000000000
     17692       154  SAPE      C211           25.0085127846       -3.7730800293      -11.2491086986  MEMB      154             0.0000000000
     17693       154  SAPE      H11R           24.0965641008       -3.1772573599      -11.4018994002  MEMB      154             0.0000000000
     17694       154  SAPE      C212           26.0560182544       -3.2501066203      -10.5000722421  MEMB      154             0.0000000000
     17695       154  SAPE      H12R           25.9692125433       -2.2130115606      -10.1438445027  MEMB      154             0.0000000000
     17696       154  SAPE      C213           27.2963739848       -3.8653398395      -10.2484190799  MEMB      154             0.0000000000
     17697       154  SAPE      H13R           27.8222612055       -4.1540428410      -11.1835204130  MEMB      154             0.0000000000
     17698       154  SAPE      H13S           27.0584899530       -4.8114338911       -9.7167816349  MEMB      154             0.0000000000
     17699       154  SAPE      C214           28.3183752332       -3.0625504754       -9.4785225127  MEMB      154             0.0000000000
     17700       154  SAPE      H14R           28.6321842078       -2.2368389265      -10.1340556344  MEMB      154             0.0000000000
     17701       154  SAPE      C215           28.8466221339       -3.3994785110       -8.3091944735  MEMB      154             0.0000000000
     17702       154  SAPE      H15R           29.5281896655       -2.7298148230       -7.7642021814  MEMB      154             0.0000000000
     17703       154  SAPE      C216           28.6150127763       -4.6793459990       -7.4737218371  MEMB      154             0.0000000000
     17704       154  SAPE      H16R           29.6088070275       -5.1746054256       -7.4361419874  MEMB      154             0.0000000000
     17705       154  SAPE      H16S           27.9610859463       -5.3856872449       -8.0285034858  MEMB      154             0.0000000000
     17706       154  SAPE      C217           28.1506529506       -4.5153917314       -6.0761518422  MEMB      154             0.0000000000
     17707       154  SAPE      H17R           27.0889862466       -4.2148393097       -5.9463325230  MEMB      154             0.0000000000
     17708       154  SAPE      H17S           28.7346265135       -3.7368223664       -5.5403107528  MEMB      154             0.0000000000
     17709       154  SAPE      C218           28.3119199697       -5.8339432607       -5.3591263652  MEMB      154             0.0000000000
     17710       154  SAPE      H18R           29.3690351946       -6.1715707206       -5.4123766673  MEMB      154             0.0000000000
     17711       154  SAPE      H18S           27.7869657534       -6.6551942159       -5.8923154799  MEMB      154             0.0000000000
     17712       154  SAPE      C219           27.8394625616       -5.8726383395       -3.8762709404  MEMB      154             0.0000000000
     17713       154  SAPE      H19R           28.2588177109       -6.7594104633       -3.3546418207  MEMB      154             0.0000000000
     17714       154  SAPE      H19S           26.7373738279       -5.9220721509       -3.7448255494  MEMB      154             0.0000000000
     17715       154  SAPE      C220           28.2477317159       -4.6061454129       -3.1295015115  MEMB      154             0.0000000000
     17716       154  SAPE      H20R           27.8043788514       -3.7859241703       -3.7336508366  MEMB      154             0.0000000000
     17717       154  SAPE      H20S           29.3400587716       -4.5452347128       -2.9360277585  MEMB      154             0.0000000000
     17718       154  SAPE      H20T           27.6926608699       -4.6101332063       -2.1671075868  MEMB      154             0.0000000000
     17719       154  SAPE      C33            25.7084569110      -10.7741888457      -16.8808435729  MEMB      154             0.0000000000
     17720       154  SAPE      H3X            25.4855426850      -10.4463746127      -17.9187106100  MEMB      154             0.0000000000
     17721       154  SAPE      H3Y            25.4377545477      -11.8513750405      -16.9075070442  MEMB      154             0.0000000000
     17722       154  SAPE      C34            27.2277296016      -10.6808207772      -16.6075270650  MEMB      154             0.0000000000
     17723       154  SAPE      H4X            27.3592633070       -9.6197384335      -16.3056590475  MEMB      154             0.0000000000
     17724       154  SAPE      H4Y            27.8782112037      -11.0269340845      -17.4390318443  MEMB      154             0.0000000000
     17725       154  SAPE      C35            27.6151618327      -11.6843578504      -15.4072596072  MEMB      154             0.0000000000
     17726       154  SAPE      H5X            27.2235235539      -12.6659585511      -15.7498976481  MEMB      154             0.0000000000
     17727       154  SAPE      H5Y            27.0957415249      -11.3670762213      -14.4778212640  MEMB      154             0.0000000000
     17728       154  SAPE      C36            29.1041167874      -11.6984079336      -15.1966039813  MEMB      154             0.0000000000
     17729       154  SAPE      H6X            29.4789061423      -10.6529826661      -15.1659489204  MEMB      154             0.0000000000
     17730       154  SAPE      H6Y            29.4813530748      -12.1751086240      -16.1265343815  MEMB      154             0.0000000000
     17731       154  SAPE      C37            29.6471243349      -12.4636889127      -13.9952172753  MEMB      154             0.0000000000
     17732       154  SAPE      H7X            30.7490939141      -12.4619152627      -14.1365726615  MEMB      154             0.0000000000
     17733       154  SAPE      H7Y            29.2351843567      -13.4720112904      -13.7763273851  MEMB      154             0.0000000000
     17734       154  SAPE      C38            29.6178360952      -11.6804644508      -12.6213801170  MEMB      154             0.0000000000
     17735       154  SAPE      H8X            28.6114692802      -11.8192361614      -12.1716146566  MEMB      154             0.0000000000
     17736       154  SAPE      H8Y            29.7997392971      -10.6182886653      -12.8915926694  MEMB      154             0.0000000000
     17737       154  SAPE      C39            30.6365270526      -12.1524635315      -11.6011827054  MEMB      154             0.0000000000
     17738       154  SAPE      H9X            31.6977699232      -11.9100929137      -11.8233102125  MEMB      154             0.0000000000
     17739       154  SAPE      H9Y            30.6340671674      -13.2593346549      -11.6968449038  MEMB      154             0.0000000000
     17740       154  SAPE      C310           30.3114289782      -11.7924735629      -10.1694398199  MEMB      154             0.0000000000
     17741       154  SAPE      H10X           30.9313485535      -12.4271049444       -9.5006623093  MEMB      154             0.0000000000
     17742       154  SAPE      H10Y           29.2528697814      -12.0706877140       -9.9787309895  MEMB      154             0.0000000000
     17743       154  SAPE      C311           30.4056238327      -10.3030973616       -9.7765053663  MEMB      154             0.0000000000
     17744       154  SAPE      H11X           29.7533232868       -9.7035453790      -10.4468504484  MEMB      154             0.0000000000
     17745       154  SAPE      H11Y           31.4136484509       -9.9152556826      -10.0368621916  MEMB      154             0.0000000000
     17746       154  SAPE      C312           30.0926906975       -9.9475179746       -8.2899558467  MEMB      154             0.0000000000
     17747       154  SAPE      H12X           30.3401674314       -8.8679618617       -8.2025785150  MEMB      154             0.0000000000
     17748       154  SAPE      H12Y           30.7107662286      -10.5643963234       -7.6031042920  MEMB      154             0.0000000000
     17749       154  SAPE      C313           28.6282312360      -10.1419554579       -7.9778286146  MEMB      154             0.0000000000
     17750       154  SAPE      H13X           28.4140157628      -11.2145565150       -8.1726602374  MEMB      154             0.0000000000
     17751       154  SAPE      H13Y           27.9809247670       -9.5663936973       -8.6735611491  MEMB      154             0.0000000000
     17752       154  SAPE      C314           28.1734492792       -9.8151843098       -6.5076726238  MEMB      154             0.0000000000
     17753       154  SAPE      H14X           27.0956382994       -9.9829526204       -6.2967264806  MEMB      154             0.0000000000
     17754       154  SAPE      H14Y           28.5629484726       -8.7846530360       -6.3640880255  MEMB      154             0.0000000000
     17755       154  SAPE      C315           28.9663749129      -10.6880275630       -5.4701371047  MEMB      154             0.0000000000
     17756       154  SAPE      H15X           30.0652135016      -10.7539091115       -5.6202521460  MEMB      154             0.0000000000
     17757       154  SAPE      H15Y           28.7986330358      -11.7635303287       -5.6925722195  MEMB      154             0.0000000000
     17758       154  SAPE      C316           28.8813365612      -10.3989972547       -3.9331088093  MEMB      154             0.0000000000
     17759       154  SAPE      H16X           28.9727833832       -9.3159194393       -3.7031077804  MEMB      154             0.0000000000
     17760       154  SAPE      H16Y           29.7226593625      -10.9483613136       -3.4590883254  MEMB      154             0.0000000000
     17761       154  SAPE      C317           27.6699143071      -11.0126116104       -3.1712057438  MEMB      154             0.0000000000
     17762       154  SAPE      H17X           27.6797488962      -12.0965075768       -3.4149142563  MEMB      154             0.0000000000
     17763       154  SAPE      H17Y           26.7834594512      -10.4294106343       -3.5004403331  MEMB      154             0.0000000000
     17764       154  SAPE      C318           27.7947202958      -10.8656261701       -1.6305712828  MEMB      154             0.0000000000
     17765       154  SAPE      H18X           26.9131962113      -11.3727657242       -1.1833047024  MEMB      154             0.0000000000
     17766       154  SAPE      H18Y           27.6138804863       -9.7785867829       -1.4892759437  MEMB      154             0.0000000000
     17767       154  SAPE      H18Z           28.7795181275      -11.2726697128       -1.3162312509  MEMB      154             0.0000000000
     17768       155  POPC      N             -11.4596947555       30.4055112622      -20.1216299113  MEMB      155             0.0000000000
     17769       155  POPC      C12           -10.5235535132       31.1417511273      -19.0705597316  MEMB      155             0.0000000000
     17770       155  POPC      H12A          -10.8758118992       32.1495463261      -18.9072718117  MEMB      155             0.0000000000
     17771       155  POPC      H12B           -9.5841967167       31.2894493558      -19.5826085096  MEMB      155             0.0000000000
     17772       155  POPC      C13           -12.5345674178       29.7526721679      -19.3587733268  MEMB      155             0.0000000000
     17773       155  POPC      H13A          -13.2633512636       30.4505619788      -18.9737745496  MEMB      155             0.0000000000
     17774       155  POPC      H13B          -13.0616760065       29.0342089497      -19.9689921849  MEMB      155             0.0000000000
     17775       155  POPC      H13C          -12.0800443366       29.1682039665      -18.5725127544  MEMB      155             0.0000000000
     17776       155  POPC      C14           -11.9420865380       31.4339051514      -21.1484974998  MEMB      155             0.0000000000
     17777       155  POPC      H14A          -12.3856027345       30.9634239314      -22.0135644793  MEMB      155             0.0000000000
     17778       155  POPC      H14B          -12.5522718197       32.1873636557      -20.6727096518  MEMB      155             0.0000000000
     17779       155  POPC      H14C          -11.0677642570       31.9096836633      -21.5675384848  MEMB      155             0.0000000000
     17780       155  POPC      C15           -10.8177073428       29.2700898073      -20.8552570158  MEMB      155             0.0000000000
     17781       155  POPC      H15A           -9.8952711862       29.6414399812      -21.2766958284  MEMB      155             0.0000000000
     17782       155  POPC      H15B          -11.3863561830       28.9318246917      -21.7088465064  MEMB      155             0.0000000000
     17783       155  POPC      H15C          -10.6634276394       28.4107331165      -20.2195654231  MEMB      155             0.0000000000
     17784       155  POPC      C11           -10.2043940929       30.3812676544      -17.7007870077  MEMB      155             0.0000000000
     17785       155  POPC      H11A          -11.1291924113       30.4287475251      -17.0869346897  MEMB      155             0.0000000000
     17786       155  POPC      H11B           -9.4133797402       30.9841123771      -17.2056148540  MEMB      155             0.0000000000
     17787       155  POPC      P              -8.3174614220       28.6209964716      -18.2304513405  MEMB      155             0.0000000000
     17788       155  POPC      O13            -7.5096613835       29.7908347121      -17.9644624070  MEMB      155             0.0000000000
     17789       155  POPC      O14            -8.3200212726       27.9977383947      -19.5809558639  MEMB      155             0.0000000000
     17790       155  POPC      O12            -9.7862332759       29.0560595762      -17.9262039704  MEMB      155             0.0000000000
     17791       155  POPC      O11            -7.9971860945       27.5878773517      -17.0424219618  MEMB      155             0.0000000000
     17792       155  POPC      C1             -8.2776908485       26.2212420527      -17.3054641242  MEMB      155             0.0000000000
     17793       155  POPC      HA             -7.7885912075       25.8183813880      -16.3928821691  MEMB      155             0.0000000000
     17794       155  POPC      HB             -7.7481736438       25.7740793344      -18.1737831009  MEMB      155             0.0000000000
     17795       155  POPC      C2             -9.7786038176       25.8865667698      -17.4094876118  MEMB      155             0.0000000000
     17796       155  POPC      HS            -10.2234803852       26.1504280063      -18.3927387259  MEMB      155             0.0000000000
     17797       155  POPC      O21           -10.3168507780       26.6262962697      -16.2964688666  MEMB      155             0.0000000000
     17798       155  POPC      C21           -11.5617276482       27.0722546540      -16.4592018739  MEMB      155             0.0000000000
     17799       155  POPC      O22           -12.3262020886       26.7971147333      -17.3873598296  MEMB      155             0.0000000000
     17800       155  POPC      C22           -12.0778105287       28.0928632887      -15.3096500025  MEMB      155             0.0000000000
     17801       155  POPC      H2R           -12.9706471065       27.6328142304      -14.8347614807  MEMB      155             0.0000000000
     17802       155  POPC      H2S           -12.3817394354       28.9938614835      -15.8842370659  MEMB      155             0.0000000000
     17803       155  POPC      C3             -9.9686786925       24.3488512122      -17.1633820643  MEMB      155             0.0000000000
     17804       155  POPC      HX             -9.4346148222       23.6995560465      -17.8896823932  MEMB      155             0.0000000000
     17805       155  POPC      HY            -11.0695010353       24.2004626913      -17.1411961801  MEMB      155             0.0000000000
     17806       155  POPC      O31            -9.4155679947       23.8856805456      -15.9027756417  MEMB      155             0.0000000000
     17807       155  POPC      C31           -10.2132235161       23.8244737305      -14.8873761748  MEMB      155             0.0000000000
     17808       155  POPC      O32           -11.4044579093       24.1354706827      -14.8916097197  MEMB      155             0.0000000000
     17809       155  POPC      C32            -9.4764639340       23.3103679412      -13.6459550268  MEMB      155             0.0000000000
     17810       155  POPC      H2X            -8.5233392486       23.8612346003      -13.4962213401  MEMB      155             0.0000000000
     17811       155  POPC      H2Y            -9.1604835069       22.2498821631      -13.7451884976  MEMB      155             0.0000000000
     17812       155  POPC      C23           -11.0263214366       28.1947440216      -14.1988369248  MEMB      155             0.0000000000
     17813       155  POPC      H3R           -10.0380606913       28.6106827201      -14.4897958168  MEMB      155             0.0000000000
     17814       155  POPC      H3S           -10.8185573307       27.2111407249      -13.7258891933  MEMB      155             0.0000000000
     17815       155  POPC      C24           -11.5914041365       29.0003470416      -13.0469523231  MEMB      155             0.0000000000
     17816       155  POPC      H4R           -12.5799793387       28.5674282455      -12.7830934400  MEMB      155             0.0000000000
     17817       155  POPC      H4S           -11.8882439809       30.0265799014      -13.3519986001  MEMB      155             0.0000000000
     17818       155  POPC      C25           -10.6735440184       29.2586177227      -11.7539791811  MEMB      155             0.0000000000
     17819       155  POPC      H5R            -9.7549718847       29.7208817815      -12.1745241816  MEMB      155             0.0000000000
     17820       155  POPC      H5S           -10.2263067217       28.3246234543      -11.3515436904  MEMB      155             0.0000000000
     17821       155  POPC      C26           -11.1557429749       30.2831040355      -10.7647429600  MEMB      155             0.0000000000
     17822       155  POPC      H6R           -11.8458706323       30.9653777149      -11.3056195621  MEMB      155             0.0000000000
     17823       155  POPC      H6S           -10.3116091497       30.7726166659      -10.2335775315  MEMB      155             0.0000000000
     17824       155  POPC      C27           -12.1169819442       29.6427389505       -9.7302351548  MEMB      155             0.0000000000
     17825       155  POPC      H7R           -11.5087771767       29.0175770649       -9.0420630403  MEMB      155             0.0000000000
     17826       155  POPC      H7S           -12.7666906235       28.9918598834      -10.3535778688  MEMB      155             0.0000000000
     17827       155  POPC      C28           -12.7605187054       30.7231160583       -8.8298877954  MEMB      155             0.0000000000
     17828       155  POPC      H8R           -13.6135301491       30.2525060474       -8.2958284685  MEMB      155             0.0000000000
     17829       155  POPC      H8S           -13.1421016912       31.5107135963       -9.5142894254  MEMB      155             0.0000000000
     17830       155  POPC      C29           -11.7867744326       31.2875176990       -7.8229938240  MEMB      155             0.0000000000
     17831       155  POPC      H91           -10.8439094846       31.6384323783       -8.2678134820  MEMB      155             0.0000000000
     17832       155  POPC      C210          -11.8896223448       31.4017696688       -6.4696644815  MEMB      155             0.0000000000
     17833       155  POPC      H101          -11.0698667258       31.9195252402       -5.9501166974  MEMB      155             0.0000000000
     17834       155  POPC      C211          -12.9748380689       30.9979112083       -5.5179672953  MEMB      155             0.0000000000
     17835       155  POPC      H11R          -13.8787592823       30.5721658709       -6.0037532146  MEMB      155             0.0000000000
     17836       155  POPC      H11S          -13.3165406507       31.8883680759       -4.9481890726  MEMB      155             0.0000000000
     17837       155  POPC      C212          -12.7485468086       29.9860950443       -4.3416563445  MEMB      155             0.0000000000
     17838       155  POPC      H12R          -13.5299759365       30.0421442501       -3.5539070116  MEMB      155             0.0000000000
     17839       155  POPC      H12S          -11.8017694577       30.3437660436       -3.8833927802  MEMB      155             0.0000000000
     17840       155  POPC      C213          -12.7079718035       28.5859590922       -4.9088552526  MEMB      155             0.0000000000
     17841       155  POPC      H13R          -11.9034166319       28.7201052556       -5.6631874571  MEMB      155             0.0000000000
     17842       155  POPC      H13S          -13.6267553348       28.2436821283       -5.4313538053  MEMB      155             0.0000000000
     17843       155  POPC      C214          -12.3167092539       27.4461750992       -3.9187900392  MEMB      155             0.0000000000
     17844       155  POPC      H14R          -12.0699681632       26.5906177248       -4.5832150787  MEMB      155             0.0000000000
     17845       155  POPC      H14S          -13.2558168692       27.3053618321       -3.3421012002  MEMB      155             0.0000000000
     17846       155  POPC      C215          -11.0458456434       27.7310544953       -3.0977114259  MEMB      155             0.0000000000
     17847       155  POPC      H15R          -11.0452280199       28.7467215018       -2.6474440559  MEMB      155             0.0000000000
     17848       155  POPC      H15S          -10.2144179462       27.6549493558       -3.8306898862  MEMB      155             0.0000000000
     17849       155  POPC      C216          -10.6972113369       26.6872386908       -2.0274248685  MEMB      155             0.0000000000
     17850       155  POPC      H16R          -11.3413262336       26.7578966242       -1.1249593544  MEMB      155             0.0000000000
     17851       155  POPC      H16S           -9.6635483157       26.8385910608       -1.6493315844  MEMB      155             0.0000000000
     17852       155  POPC      C217          -10.6327387309       25.2808093800       -2.6723359696  MEMB      155             0.0000000000
     17853       155  POPC      H17R          -10.0342189649       25.3715694525       -3.6039244503  MEMB      155             0.0000000000
     17854       155  POPC      H17S          -11.6933096464       25.0116632422       -2.8648737996  MEMB      155             0.0000000000
     17855       155  POPC      C218           -9.9780664789       24.1732550782       -1.8679375667  MEMB      155             0.0000000000
     17856       155  POPC      H18R           -9.6697366119       23.2610405659       -2.4221205612  MEMB      155             0.0000000000
     17857       155  POPC      H18S          -10.6251396202       23.9412346926       -0.9951354254  MEMB      155             0.0000000000
     17858       155  POPC      H18T           -8.9885743835       24.6243364778       -1.6404477087  MEMB      155             0.0000000000
     17859       155  POPC      C33           -10.3903342907       23.6552285484      -12.4231235093  MEMB      155             0.0000000000
     17860       155  POPC      H3X           -11.4021476503       23.2022593193      -12.4964285403  MEMB      155             0.0000000000
     17861       155  POPC      H3Y           -10.3846829644       24.7588147969      -12.2951143186  MEMB      155             0.0000000000
     17862       155  POPC      C34            -9.7628261210       23.0035967967      -11.2582329177  MEMB      155             0.0000000000
     17863       155  POPC      H4X            -8.7628517735       23.4529998651      -11.0782073791  MEMB      155             0.0000000000
     17864       155  POPC      H4Y            -9.7141621587       21.9171927033      -11.4855647833  MEMB      155             0.0000000000
     17865       155  POPC      C35           -10.5319828302       23.1337818405       -9.9474478615  MEMB      155             0.0000000000
     17866       155  POPC      H5X           -10.2125545707       22.3363524192       -9.2428961042  MEMB      155             0.0000000000
     17867       155  POPC      H5Y           -11.6144646720       22.9552547044      -10.1226116859  MEMB      155             0.0000000000
     17868       155  POPC      C36           -10.1296045775       24.5033384923       -9.3008285264  MEMB      155             0.0000000000
     17869       155  POPC      H6X           -10.6781937349       25.3252371188       -9.8086219197  MEMB      155             0.0000000000
     17870       155  POPC      H6Y            -9.0520766565       24.6895207758       -9.4972732211  MEMB      155             0.0000000000
     17871       155  POPC      C37           -10.1665502641       24.4514043083       -7.7977462769  MEMB      155             0.0000000000
     17872       155  POPC      H7X            -9.8379858052       23.4797835543       -7.3707569075  MEMB      155             0.0000000000
     17873       155  POPC      H7Y           -11.1835518102       24.5829635480       -7.3702875721  MEMB      155             0.0000000000
     17874       155  POPC      C38            -9.0902029097       25.3766363259       -7.2087369818  MEMB      155             0.0000000000
     17875       155  POPC      H8X            -8.0641305535       25.0219631248       -7.4447525903  MEMB      155             0.0000000000
     17876       155  POPC      H8Y            -9.1479928018       25.2171182163       -6.1107680868  MEMB      155             0.0000000000
     17877       155  POPC      C39            -9.3578940826       26.8043144442       -7.5407873154  MEMB      155             0.0000000000
     17878       155  POPC      H9X           -10.4371260898       27.0649172054       -7.4999776344  MEMB      155             0.0000000000
     17879       155  POPC      H9Y            -9.0305949868       27.0063849673       -8.5830756297  MEMB      155             0.0000000000
     17880       155  POPC      C310           -8.6455053967       27.8211980718       -6.5547686088  MEMB      155             0.0000000000
     17881       155  POPC      H10X           -9.1363022122       27.7632991053       -5.5597374142  MEMB      155             0.0000000000
     17882       155  POPC      H10Y           -8.8351826882       28.8568547590       -6.9093936800  MEMB      155             0.0000000000
     17883       155  POPC      C311           -7.1253333686       27.7469364287       -6.2523480829  MEMB      155             0.0000000000
     17884       155  POPC      H11X           -6.5449734047       27.4326670976       -7.1460698372  MEMB      155             0.0000000000
     17885       155  POPC      H11Y           -6.7703310373       26.9063711747       -5.6185144164  MEMB      155             0.0000000000
     17886       155  POPC      C312           -6.6717209178       29.0862456942       -5.7759376209  MEMB      155             0.0000000000
     17887       155  POPC      H12X           -7.0132225208       29.8841771559       -6.4694808639  MEMB      155             0.0000000000
     17888       155  POPC      H12Y           -5.5613891667       29.0610722275       -5.8051039309  MEMB      155             0.0000000000
     17889       155  POPC      C313           -7.1873201778       29.3394625147       -4.3077771667  MEMB      155             0.0000000000
     17890       155  POPC      H13X           -6.4814200667       28.7701355511       -3.6659886022  MEMB      155             0.0000000000
     17891       155  POPC      H13Y           -8.1910208378       28.8722149844       -4.2151197837  MEMB      155             0.0000000000
     17892       155  POPC      C314           -7.2155125912       30.8024327307       -3.9092126244  MEMB      155             0.0000000000
     17893       155  POPC      H14X           -7.7636459223       31.4019741940       -4.6671185236  MEMB      155             0.0000000000
     17894       155  POPC      H14Y           -6.1519602462       31.1183683198       -3.8512315084  MEMB      155             0.0000000000
     17895       155  POPC      C315           -7.7908349664       31.0566174821       -2.5009051655  MEMB      155             0.0000000000
     17896       155  POPC      H15X           -8.8301616145       30.6792708327       -2.3925997268  MEMB      155             0.0000000000
     17897       155  POPC      H15Y           -7.8155067531       32.1353211743       -2.2361194622  MEMB      155             0.0000000000
     17898       155  POPC      C316           -7.0048158414       30.5699029326       -1.3448444279  MEMB      155             0.0000000000
     17899       155  POPC      H16X           -5.9998330519       31.0433465169       -1.3583162491  MEMB      155             0.0000000000
     17900       155  POPC      H16Y           -6.8126105369       29.4836547737       -1.4769183065  MEMB      155             0.0000000000
     17901       155  POPC      H16Z           -7.5348292066       30.7767661614       -0.3905828273  MEMB      155             0.0000000000
     17902       156  SOPE      N              -3.5499295557      -33.3576717538      -20.0013673457  MEMB      156             0.0000000000
     17903       156  SOPE      HN1            -3.7160743433      -34.3738996226      -20.1472342007  MEMB      156             0.0000000000
     17904       156  SOPE      HN2            -2.7162544700      -33.0442845767      -20.5383722531  MEMB      156             0.0000000000
     17905       156  SOPE      HN3            -3.3180814081      -33.2893259856      -18.9898461111  MEMB      156             0.0000000000
     17906       156  SOPE      C12            -4.8796655758      -32.7156872326      -20.4349139808  MEMB      156             0.0000000000
     17907       156  SOPE      H12A           -5.6968093296      -33.1163545296      -19.7976834126  MEMB      156             0.0000000000
     17908       156  SOPE      H12B           -4.9546477476      -33.0616883634      -21.4879960683  MEMB      156             0.0000000000
     17909       156  SOPE      C11            -4.8186275648      -31.2293733530      -20.4253401028  MEMB      156             0.0000000000
     17910       156  SOPE      H11A           -4.5394755249      -30.7129601333      -19.4820943638  MEMB      156             0.0000000000
     17911       156  SOPE      H11B           -5.8493281537      -30.8556378430      -20.6050592845  MEMB      156             0.0000000000
     17912       156  SOPE      P              -2.6501267498      -30.3093843755      -21.4899241638  MEMB      156             0.0000000000
     17913       156  SOPE      O13            -2.5668570285      -29.2520170540      -22.4857866929  MEMB      156             0.0000000000
     17914       156  SOPE      O14            -1.6922482796      -31.4124117463      -21.5625067211  MEMB      156             0.0000000000
     17915       156  SOPE      O12            -4.1397361718      -30.7992687069      -21.5727321339  MEMB      156             0.0000000000
     17916       156  SOPE      O11            -2.4148375458      -29.8054370074      -20.0274288604  MEMB      156             0.0000000000
     17917       156  SOPE      C1             -1.5061200426      -28.7419889275      -19.7243352051  MEMB      156             0.0000000000
     17918       156  SOPE      HA             -1.3452390356      -27.9282265576      -20.4634081428  MEMB      156             0.0000000000
     17919       156  SOPE      HB             -0.4485723754      -29.0598193080      -19.6022785693  MEMB      156             0.0000000000
     17920       156  SOPE      C2             -2.0856357757      -28.0255601257      -18.4888002078  MEMB      156             0.0000000000
     17921       156  SOPE      HS             -1.3064283225      -27.2734552393      -18.2408181650  MEMB      156             0.0000000000
     17922       156  SOPE      O21            -2.2937152868      -28.9142206372      -17.3840809956  MEMB      156             0.0000000000
     17923       156  SOPE      C21            -1.1899382387      -29.4336196656      -16.8488306831  MEMB      156             0.0000000000
     17924       156  SOPE      O22            -0.0762869989      -29.1373478945      -17.1953783190  MEMB      156             0.0000000000
     17925       156  SOPE      C22            -1.5248917686      -30.4709992281      -15.7604105756  MEMB      156             0.0000000000
     17926       156  SOPE      H2R            -0.7200725393      -31.2360567270      -15.7961035287  MEMB      156             0.0000000000
     17927       156  SOPE      H2S            -2.4953379109      -30.9914402974      -15.9077084554  MEMB      156             0.0000000000
     17928       156  SOPE      C3             -3.4268080373      -27.2765921530      -18.7848002170  MEMB      156             0.0000000000
     17929       156  SOPE      HX             -4.1551560463      -27.9261973605      -19.3156894999  MEMB      156             0.0000000000
     17930       156  SOPE      HY             -3.2548729244      -26.4429998861      -19.4988614373  MEMB      156             0.0000000000
     17931       156  SOPE      O31            -4.0178242223      -26.6612559663      -17.6021959981  MEMB      156             0.0000000000
     17932       156  SOPE      C31            -4.7191919836      -27.5203415866      -16.8255379871  MEMB      156             0.0000000000
     17933       156  SOPE      O32            -4.8670311140      -28.7241636617      -17.0703369705  MEMB      156             0.0000000000
     17934       156  SOPE      C32            -5.2281150086      -26.9021022750      -15.4997937585  MEMB      156             0.0000000000
     17935       156  SOPE      H2X            -5.9657280750      -26.1014043321      -15.7214479982  MEMB      156             0.0000000000
     17936       156  SOPE      H2Y            -4.3120267614      -26.4839464888      -15.0304868468  MEMB      156             0.0000000000
     17937       156  SOPE      C23            -1.6191181286      -29.7606019189      -14.4349445791  MEMB      156             0.0000000000
     17938       156  SOPE      H3R            -2.2049988968      -28.8211467357      -14.5270793445  MEMB      156             0.0000000000
     17939       156  SOPE      H3S            -0.5959252062      -29.4207598658      -14.1667943145  MEMB      156             0.0000000000
     17940       156  SOPE      C24            -2.1995493109      -30.7013736070      -13.2700874624  MEMB      156             0.0000000000
     17941       156  SOPE      H4R            -3.2544650546      -30.9001556927      -13.5563727901  MEMB      156             0.0000000000
     17942       156  SOPE      H4S            -1.6522411906      -31.6682106796      -13.2691164831  MEMB      156             0.0000000000
     17943       156  SOPE      C25            -2.0216710093      -30.1053375449      -11.8267756498  MEMB      156             0.0000000000
     17944       156  SOPE      H5R            -0.9152440173      -30.1030867945      -11.7261014653  MEMB      156             0.0000000000
     17945       156  SOPE      H5S            -2.4643379227      -29.0865495414      -11.8477064972  MEMB      156             0.0000000000
     17946       156  SOPE      C26            -2.6334529729      -30.9780891681      -10.6890095333  MEMB      156             0.0000000000
     17947       156  SOPE      H6R            -2.2001549860      -30.6668645593       -9.7144776045  MEMB      156             0.0000000000
     17948       156  SOPE      H6S            -3.7158806767      -30.7313160300      -10.6468850310  MEMB      156             0.0000000000
     17949       156  SOPE      C27            -2.4735485004      -32.4756815519      -10.9098106464  MEMB      156             0.0000000000
     17950       156  SOPE      H7R            -2.8931362260      -32.8262890377      -11.8769413545  MEMB      156             0.0000000000
     17951       156  SOPE      H7S            -1.3819574271      -32.6772336107      -10.9559237854  MEMB      156             0.0000000000
     17952       156  SOPE      C28            -3.0646880476      -33.3886347153       -9.8150540454  MEMB      156             0.0000000000
     17953       156  SOPE      H8R            -4.1167338010      -33.0336093319       -9.8534952707  MEMB      156             0.0000000000
     17954       156  SOPE      H8S            -3.0076915397      -34.4207607285      -10.2222254513  MEMB      156             0.0000000000
     17955       156  SOPE      C29            -2.2936585391      -33.1722830268       -8.5709628056  MEMB      156             0.0000000000
     17956       156  SOPE      H91            -1.2758905490      -32.8359134339       -8.8179527925  MEMB      156             0.0000000000
     17957       156  SOPE      C210           -2.7377652120      -33.3441454006       -7.2905239991  MEMB      156             0.0000000000
     17958       156  SOPE      H101           -2.0146001073      -33.2626488267       -6.4656659487  MEMB      156             0.0000000000
     17959       156  SOPE      C211           -4.1297144940      -33.7689151736       -6.9229111723  MEMB      156             0.0000000000
     17960       156  SOPE      H11R           -4.2370631851      -34.8297125288       -7.2351716357  MEMB      156             0.0000000000
     17961       156  SOPE      H11S           -4.8376642939      -33.1530207105       -7.5177241965  MEMB      156             0.0000000000
     17962       156  SOPE      C212           -4.5552866275      -33.5634696953       -5.3926577127  MEMB      156             0.0000000000
     17963       156  SOPE      H12R           -5.6012226473      -33.8391533799       -5.1390102933  MEMB      156             0.0000000000
     17964       156  SOPE      H12S           -4.4751367379      -32.4782569461       -5.1685813901  MEMB      156             0.0000000000
     17965       156  SOPE      C213           -3.7856137483      -34.2844680340       -4.3587155037  MEMB      156             0.0000000000
     17966       156  SOPE      H13R           -2.7075210102      -34.3554444872       -4.6175578714  MEMB      156             0.0000000000
     17967       156  SOPE      H13S           -4.2241642453      -35.2985370814       -4.2418491463  MEMB      156             0.0000000000
     17968       156  SOPE      C214           -3.9714517963      -33.5619246674       -2.9719948178  MEMB      156             0.0000000000
     17969       156  SOPE      H14R           -3.5664392408      -32.5285655056       -2.9224518590  MEMB      156             0.0000000000
     17970       156  SOPE      H14S           -3.3447662836      -34.1663385899       -2.2818722856  MEMB      156             0.0000000000
     17971       156  SOPE      C215           -5.3835663030      -33.5928378926       -2.3820176246  MEMB      156             0.0000000000
     17972       156  SOPE      H15R           -6.1125609120      -32.9162899221       -2.8771652184  MEMB      156             0.0000000000
     17973       156  SOPE      H15S           -5.3637313959      -33.2657830122       -1.3204341167  MEMB      156             0.0000000000
     17974       156  SOPE      C216           -5.9821432119      -35.0500778149       -2.4980652849  MEMB      156             0.0000000000
     17975       156  SOPE      H16R           -5.1034083288      -35.7290700323       -2.4646704467  MEMB      156             0.0000000000
     17976       156  SOPE      H16S           -6.4325652895      -35.2691089376       -3.4897652036  MEMB      156             0.0000000000
     17977       156  SOPE      C217           -7.0313960967      -35.3834469453       -1.4506408409  MEMB      156             0.0000000000
     17978       156  SOPE      H17R           -6.7571007130      -35.3559732388       -0.3743845146  MEMB      156             0.0000000000
     17979       156  SOPE      H17S           -7.2352110165      -36.4641514542       -1.6083054368  MEMB      156             0.0000000000
     17980       156  SOPE      C218           -8.2552871128      -34.5524431534       -1.5693882706  MEMB      156             0.0000000000
     17981       156  SOPE      H18R           -9.0412766764      -34.9462655976       -0.8900915337  MEMB      156             0.0000000000
     17982       156  SOPE      H18S           -8.7323087888      -34.4600053269       -2.5685024226  MEMB      156             0.0000000000
     17983       156  SOPE      H18T           -7.9864894584      -33.5348770752       -1.2135397819  MEMB      156             0.0000000000
     17984       156  SOPE      C33            -5.8718578753      -28.0535257045      -14.6878019562  MEMB      156             0.0000000000
     17985       156  SOPE      H3X            -5.1961450159      -28.9173471278      -14.5101901769  MEMB      156             0.0000000000
     17986       156  SOPE      H3Y            -6.7739371182      -28.4586142913      -15.1942378142  MEMB      156             0.0000000000
     17987       156  SOPE      C34            -6.4499173310      -27.7726652063      -13.2512820743  MEMB      156             0.0000000000
     17988       156  SOPE      H4X            -6.9083634928      -28.6965332176      -12.8382260827  MEMB      156             0.0000000000
     17989       156  SOPE      H4Y            -7.2185248879      -26.9730386663      -13.3157864013  MEMB      156             0.0000000000
     17990       156  SOPE      C35            -5.3070277413      -27.2748916518      -12.2832901178  MEMB      156             0.0000000000
     17991       156  SOPE      H5X            -4.8768067751      -26.3483616459      -12.7200657321  MEMB      156             0.0000000000
     17992       156  SOPE      H5Y            -4.4785222186      -28.0142330983      -12.3189831204  MEMB      156             0.0000000000
     17993       156  SOPE      C36            -5.6387120221      -27.0396694402      -10.8502837482  MEMB      156             0.0000000000
     17994       156  SOPE      H6X            -6.4453284723      -26.2756974003      -10.8564434806  MEMB      156             0.0000000000
     17995       156  SOPE      H6Y            -4.7727770396      -26.8224609373      -10.1889988334  MEMB      156             0.0000000000
     17996       156  SOPE      C37            -6.2459228825      -28.2874855249      -10.1040171220  MEMB      156             0.0000000000
     17997       156  SOPE      H7X            -5.4651924046      -29.0719773609      -10.0073033963  MEMB      156             0.0000000000
     17998       156  SOPE      H7Y            -7.0923865282      -28.7278335171      -10.6731509999  MEMB      156             0.0000000000
     17999       156  SOPE      C38            -6.4642042188      -27.9146490209       -8.6100275119  MEMB      156             0.0000000000
     18000       156  SOPE      H8X            -7.3532494172      -27.2920662787       -8.3727288230  MEMB      156             0.0000000000
     18001       156  SOPE      H8Y            -5.5762897626      -27.3603838702       -8.2375769195  MEMB      156             0.0000000000
     18002       156  SOPE      C39            -6.7471460120      -29.0684626358       -7.6153494699  MEMB      156             0.0000000000
     18003       156  SOPE      H9X            -7.6205548269      -29.5990658333       -8.0511685658  MEMB      156             0.0000000000
     18004       156  SOPE      H9Y            -6.8478633631      -28.6454646943       -6.5929746031  MEMB      156             0.0000000000
     18005       156  SOPE      C310           -5.5851975749      -30.1252691881       -7.3116802767  MEMB      156             0.0000000000
     18006       156  SOPE      H10X           -5.5862038669      -30.8303870523       -8.1702426539  MEMB      156             0.0000000000
     18007       156  SOPE      H10Y           -5.9080802334      -30.6738560407       -6.4011198536  MEMB      156             0.0000000000
     18008       156  SOPE      C311           -4.1481517117      -29.5066071054       -7.0173896695  MEMB      156             0.0000000000
     18009       156  SOPE      H11X           -3.7370111446      -29.1600692860       -7.9896012653  MEMB      156             0.0000000000
     18010       156  SOPE      H11Y           -3.4601468927      -30.3244149691       -6.7138093423  MEMB      156             0.0000000000
     18011       156  SOPE      C312           -4.1015059071      -28.5746119095       -5.8298266404  MEMB      156             0.0000000000
     18012       156  SOPE      H12X           -4.4092035838      -27.5436365698       -6.1068343816  MEMB      156             0.0000000000
     18013       156  SOPE      H12Y           -3.0462887281      -28.4726872705       -5.4974876186  MEMB      156             0.0000000000
     18014       156  SOPE      C313           -4.8327492612      -29.0848740198       -4.5331604078  MEMB      156             0.0000000000
     18015       156  SOPE      H13X           -4.3391893056      -30.0290645031       -4.2181628576  MEMB      156             0.0000000000
     18016       156  SOPE      H13Y           -5.8893444666      -29.3350479785       -4.7684062865  MEMB      156             0.0000000000
     18017       156  SOPE      C314           -4.7719505134      -28.0659973305       -3.3934942308  MEMB      156             0.0000000000
     18018       156  SOPE      H14X           -5.4169705920      -27.1771625031       -3.5615514721  MEMB      156             0.0000000000
     18019       156  SOPE      H14Y           -3.7483281748      -27.6559545020       -3.5290811876  MEMB      156             0.0000000000
     18020       156  SOPE      C315           -4.8317124877      -28.6098950631       -2.0113035342  MEMB      156             0.0000000000
     18021       156  SOPE      H15X           -5.0844994194      -27.8430872630       -1.2481351035  MEMB      156             0.0000000000
     18022       156  SOPE      H15Y           -3.8899080255      -29.1784052439       -1.8559927844  MEMB      156             0.0000000000
     18023       156  SOPE      C316           -5.9692538213      -29.7322661661       -1.7839821042  MEMB      156             0.0000000000
     18024       156  SOPE      H16X           -5.7119068418      -30.1322808800       -0.7799490264  MEMB      156             0.0000000000
     18025       156  SOPE      H16Y           -5.6826445670      -30.5539089912       -2.4746910192  MEMB      156             0.0000000000
     18026       156  SOPE      C317           -7.3850966440      -29.2885669884       -2.0449488380  MEMB      156             0.0000000000
     18027       156  SOPE      H17X           -7.4018250268      -28.7715873876       -3.0281964722  MEMB      156             0.0000000000
     18028       156  SOPE      H17Y           -7.8074979035      -28.5479369803       -1.3326529315  MEMB      156             0.0000000000
     18029       156  SOPE      C318           -8.3948943002      -30.4667623579       -2.0392867234  MEMB      156             0.0000000000
     18030       156  SOPE      H18X           -9.4089292983      -30.0873266633       -2.2884515953  MEMB      156             0.0000000000
     18031       156  SOPE      H18Y           -8.4667133950      -30.8898055379       -1.0144953748  MEMB      156             0.0000000000
     18032       156  SOPE      H18Z           -8.1791144503      -31.2143127602       -2.8323369685  MEMB      156             0.0000000000
     18033       157  CHL1      C3             30.9393692781        6.5810121842      -17.3145150000  MEMB      157             0.0000000000
     18034       157  CHL1      H3             30.3199570624        5.6591470357      -17.3430650000  MEMB      157             0.0000000000
     18035       157  CHL1      O3             30.9448677219        7.0874622158      -18.6854850000  MEMB      157             0.0000000000
     18036       157  CHL1      H3'            31.2767919266        6.3624629394      -19.2200950000  MEMB      157             0.0000000000
     18037       157  CHL1      C4             30.1677990437        7.6187280624      -16.4913950000  MEMB      157             0.0000000000
     18038       157  CHL1      H4A            30.5057704303        8.6542067215      -16.7102050000  MEMB      157             0.0000000000
     18039       157  CHL1      H4B            29.1062819734        7.5547768269      -16.8129750000  MEMB      157             0.0000000000
     18040       157  CHL1      C5             30.3176565016        7.3362205991      -14.9920350000  MEMB      157             0.0000000000
     18041       157  CHL1      C6             29.2713925952        7.3898644533      -14.2160450000  MEMB      157             0.0000000000
     18042       157  CHL1      H6             28.2984970531        7.6516385568      -14.6575850000  MEMB      157             0.0000000000
     18043       157  CHL1      C7             29.3579439303        7.2300955211      -12.7568250000  MEMB      157             0.0000000000
     18044       157  CHL1      H7A            28.7077932759        7.9608448272      -12.2299250000  MEMB      157             0.0000000000
     18045       157  CHL1      H7B            28.8315921487        6.2720624131      -12.5582150000  MEMB      157             0.0000000000
     18046       157  CHL1      C8             30.7413721985        7.2639340109      -12.1023550000  MEMB      157             0.0000000000
     18047       157  CHL1      H8             31.1008913606        8.3123084665      -12.1796950000  MEMB      157             0.0000000000
     18048       157  CHL1      C14            30.7469804838        6.8106839263      -10.7054750000  MEMB      157             0.0000000000
     18049       157  CHL1      H14            30.4840318597        5.7321631529      -10.6610650000  MEMB      157             0.0000000000
     18050       157  CHL1      C15            29.8160871795        7.4632487725       -9.7806250000  MEMB      157             0.0000000000
     18051       157  CHL1      H15A           29.8005102957        8.5733502497       -9.8223050000  MEMB      157             0.0000000000
     18052       157  CHL1      H15B           28.7445161937        7.2733791357      -10.0042850000  MEMB      157             0.0000000000
     18053       157  CHL1      C16            30.2858028831        6.9915442884       -8.4194750000  MEMB      157             0.0000000000
     18054       157  CHL1      H16A           30.3867910402        7.9023360347       -7.7913250000  MEMB      157             0.0000000000
     18055       157  CHL1      H16B           29.5757074201        6.3242172327       -7.8858450000  MEMB      157             0.0000000000
     18056       157  CHL1      C17            31.7282032270        6.3882612538       -8.6347850000  MEMB      157             0.0000000000
     18057       157  CHL1      H17            31.6625823198        5.2816837138       -8.5606250000  MEMB      157             0.0000000000
     18058       157  CHL1      C13            32.1083211252        6.7719918926      -10.1046650000  MEMB      157             0.0000000000
     18059       157  CHL1      C18            32.6786682324        8.2002675387      -10.2275950000  MEMB      157             0.0000000000
     18060       157  CHL1      H18A           33.5516020577        8.2096718556       -9.5404250000  MEMB      157             0.0000000000
     18061       157  CHL1      H18B           33.1935546350        8.3981847243      -11.1919750000  MEMB      157             0.0000000000
     18062       157  CHL1      H18C           32.0233409225        9.0575944165       -9.9632650000  MEMB      157             0.0000000000
     18063       157  CHL1      C12            33.0276171955        5.7491298968      -10.7909550000  MEMB      157             0.0000000000
     18064       157  CHL1      H12A           34.0381224599        5.7907492229      -10.3310950000  MEMB      157             0.0000000000
     18065       157  CHL1      H12B           32.5005129746        4.7780639212      -10.6747250000  MEMB      157             0.0000000000
     18066       157  CHL1      C11            33.1116487107        6.1623043797      -12.2944350000  MEMB      157             0.0000000000
     18067       157  CHL1      H11A           33.7521495508        7.0618733060      -12.4163250000  MEMB      157             0.0000000000
     18068       157  CHL1      H11B           33.6495607760        5.4041487964      -12.9028450000  MEMB      157             0.0000000000
     18069       157  CHL1      C9             31.6673750910        6.3971796655      -12.9533150000  MEMB      157             0.0000000000
     18070       157  CHL1      H9             31.1570822352        5.4152623074      -13.0520950000  MEMB      157             0.0000000000
     18071       157  CHL1      C10            31.7384111674        6.9323178359      -14.4433850000  MEMB      157             0.0000000000
     18072       157  CHL1      C19            32.5022393727        8.3043883012      -14.5103450000  MEMB      157             0.0000000000
     18073       157  CHL1      H19A           33.5262669838        8.1906964232      -14.0946750000  MEMB      157             0.0000000000
     18074       157  CHL1      H19B           32.5623407868        8.8466397312      -15.4781550000  MEMB      157             0.0000000000
     18075       157  CHL1      H19C           32.0103641804        9.0596115098      -13.8607150000  MEMB      157             0.0000000000
     18076       157  CHL1      C1             32.3667603383        5.8587287051      -15.2769650000  MEMB      157             0.0000000000
     18077       157  CHL1      H1A            33.4199641084        5.7301513932      -14.9474850000  MEMB      157             0.0000000000
     18078       157  CHL1      H1B            31.8408990775        4.8817458849      -15.2194650000  MEMB      157             0.0000000000
     18079       157  CHL1      C2             32.4134065228        6.2691270676      -16.8216750000  MEMB      157             0.0000000000
     18080       157  CHL1      H2A            32.8564559824        5.4832268264      -17.4700450000  MEMB      157             0.0000000000
     18081       157  CHL1      H2B            32.9966834046        7.2142223720      -16.8515450000  MEMB      157             0.0000000000
     18082       157  CHL1      C20            32.6790319668        6.6574109191       -7.4518050000  MEMB      157             0.0000000000
     18083       157  CHL1      H20            32.5690204671        7.6978127705       -7.0779250000  MEMB      157             0.0000000000
     18084       157  CHL1      C21            34.1339465828        6.3929925106       -7.6368250000  MEMB      157             0.0000000000
     18085       157  CHL1      H21A           34.6385426558        7.0829609696       -8.3465050000  MEMB      157             0.0000000000
     18086       157  CHL1      H21B           34.2420971546        5.3498444895       -8.0035350000  MEMB      157             0.0000000000
     18087       157  CHL1      H21C           34.6850168911        6.5929983009       -6.6930850000  MEMB      157             0.0000000000
     18088       157  CHL1      C22            32.2064852637        5.8984214634       -6.1076750000  MEMB      157             0.0000000000
     18089       157  CHL1      H22A           31.0994803124        5.9096708135       -6.0141750000  MEMB      157             0.0000000000
     18090       157  CHL1      H22B           32.4543848311        4.8279442508       -6.2718250000  MEMB      157             0.0000000000
     18091       157  CHL1      C23            32.9157053254        6.3636337492       -4.7822950000  MEMB      157             0.0000000000
     18092       157  CHL1      H23A           33.9779497874        6.1335471669       -5.0125850000  MEMB      157             0.0000000000
     18093       157  CHL1      H23B           32.8551358031        7.4713419487       -4.7221350000  MEMB      157             0.0000000000
     18094       157  CHL1      C24            32.3876702972        5.6278630590       -3.6362050000  MEMB      157             0.0000000000
     18095       157  CHL1      H24A           31.3134068551        5.6230338373       -3.3528950000  MEMB      157             0.0000000000
     18096       157  CHL1      H24B           32.5010436726        4.5319624843       -3.7792750000  MEMB      157             0.0000000000
     18097       157  CHL1      C25            33.0757376147        5.9742271985       -2.3368350000  MEMB      157             0.0000000000
     18098       157  CHL1      H25            32.7564883788        5.2040229864       -1.6025550000  MEMB      157             0.0000000000
     18099       157  CHL1      C26            34.5905025122        6.0661463726       -2.4781450000  MEMB      157             0.0000000000
     18100       157  CHL1      H26A           34.9271270736        5.2878775810       -3.1959950000  MEMB      157             0.0000000000
     18101       157  CHL1      H26B           34.9092787861        7.0710421502       -2.8286750000  MEMB      157             0.0000000000
     18102       157  CHL1      H26C           35.0731601254        5.8397306479       -1.5034150000  MEMB      157             0.0000000000
     18103       157  CHL1      C27            32.5214179308        7.3364090515       -1.8114350000  MEMB      157             0.0000000000
     18104       157  CHL1      H27A           32.9882567705        7.5036922398       -0.8172550000  MEMB      157             0.0000000000
     18105       157  CHL1      H27B           32.7971859372        8.1919005408       -2.4644350000  MEMB      157             0.0000000000
     18106       157  CHL1      H27C           31.4191203917        7.2314107192       -1.7206750000  MEMB      157             0.0000000000
     18107       158  SLPC      N              23.9736106511      -19.9532283837      -15.2499868604  MEMB      158             0.0000000000
     18108       158  SLPC      C13            25.2621918502      -20.2505291962      -15.9402414424  MEMB      158             0.0000000000
     18109       158  SLPC      H13A           25.3115140541      -19.7195607751      -16.8794112620  MEMB      158             0.0000000000
     18110       158  SLPC      H13B           26.0545294345      -19.9636585745      -15.2647366340  MEMB      158             0.0000000000
     18111       158  SLPC      H13C           25.3353329408      -21.3053083857      -16.1604484892  MEMB      158             0.0000000000
     18112       158  SLPC      C14            24.0682429287      -18.5319217663      -14.7090206523  MEMB      158             0.0000000000
     18113       158  SLPC      H14A           23.2129524564      -18.3599232024      -14.0723928222  MEMB      158             0.0000000000
     18114       158  SLPC      H14B           25.0537805878      -18.5768986868      -14.2695977307  MEMB      158             0.0000000000
     18115       158  SLPC      H14C           24.0794080571      -17.8450524083      -15.5423789474  MEMB      158             0.0000000000
     18116       158  SLPC      C15            23.7274722772      -20.9784412914      -14.1398063497  MEMB      158             0.0000000000
     18117       158  SLPC      H15A           22.6937189690      -20.9055981098      -13.8357538599  MEMB      158             0.0000000000
     18118       158  SLPC      H15B           23.7441488095      -21.9459613668      -14.6194174686  MEMB      158             0.0000000000
     18119       158  SLPC      H15C           24.3957172549      -20.8198940939      -13.3063127334  MEMB      158             0.0000000000
     18120       158  SLPC      C12            22.8614359052      -19.9022550969      -16.2878176883  MEMB      158             0.0000000000
     18121       158  SLPC      H12A           23.1162118462      -19.0624429228      -16.9172657802  MEMB      158             0.0000000000
     18122       158  SLPC      H12B           21.9163700549      -19.6241294249      -15.8452156011  MEMB      158             0.0000000000
     18123       158  SLPC      C11            22.4861358263      -21.1945595576      -17.2044255690  MEMB      158             0.0000000000
     18124       158  SLPC      H11A           21.7542907956      -20.9245007893      -17.9954957958  MEMB      158             0.0000000000
     18125       158  SLPC      H11B           21.9239567711      -21.9693965696      -16.6405965335  MEMB      158             0.0000000000
     18126       158  SLPC      P              23.5172749727      -22.9902643262      -18.7277419953  MEMB      158             0.0000000000
     18127       158  SLPC      O13            23.8141010160      -22.6419175339      -20.1279172989  MEMB      158             0.0000000000
     18128       158  SLPC      O14            24.3306641423      -24.1039044626      -18.1432032783  MEMB      158             0.0000000000
     18129       158  SLPC      O12            23.6648224128      -21.7115247147      -17.8138467985  MEMB      158             0.0000000000
     18130       158  SLPC      O11            21.9412083037      -23.3247412027      -18.6559920462  MEMB      158             0.0000000000
     18131       158  SLPC      C1             21.4212013502      -24.5843597070      -18.9117668273  MEMB      158             0.0000000000
     18132       158  SLPC      HA             20.6621636076      -24.3721919015      -19.6948168899  MEMB      158             0.0000000000
     18133       158  SLPC      HB             22.1627703017      -25.2951869705      -19.3349935620  MEMB      158             0.0000000000
     18134       158  SLPC      C2             20.6433004872      -25.2181738036      -17.6979620603  MEMB      158             0.0000000000
     18135       158  SLPC      HS             19.7137584181      -25.7130474442      -18.0520431125  MEMB      158             0.0000000000
     18136       158  SLPC      O21            20.3681171383      -24.2001854827      -16.7589144977  MEMB      158             0.0000000000
     18137       158  SLPC      C21            19.4753546497      -24.3798412435      -15.7372077741  MEMB      158             0.0000000000
     18138       158  SLPC      O22            18.7811057074      -25.3486263088      -15.5871643994  MEMB      158             0.0000000000
     18139       158  SLPC      C22            19.5216169510      -23.0208896009      -14.9133491559  MEMB      158             0.0000000000
     18140       158  SLPC      H2R            19.2864173699      -22.1757940112      -15.5951229117  MEMB      158             0.0000000000
     18141       158  SLPC      H2S            18.6860578723      -23.0238061338      -14.1811239587  MEMB      158             0.0000000000
     18142       158  SLPC      C3             21.5293449383      -26.2736883648      -17.0813057271  MEMB      158             0.0000000000
     18143       158  SLPC      HX             21.8399331229      -26.9435449293      -17.9114553233  MEMB      158             0.0000000000
     18144       158  SLPC      HY             20.9171473377      -26.7901281842      -16.3113544466  MEMB      158             0.0000000000
     18145       158  SLPC      O31            22.7047359682      -25.7436385261      -16.5434077714  MEMB      158             0.0000000000
     18146       158  SLPC      C31            23.0944513904      -26.3042186567      -15.4210793711  MEMB      158             0.0000000000
     18147       158  SLPC      O32            22.5710664378      -27.2585967300      -14.8492931846  MEMB      158             0.0000000000
     18148       158  SLPC      C32            24.2979848990      -25.4643084092      -14.7767194102  MEMB      158             0.0000000000
     18149       158  SLPC      H2X            23.8959165724      -24.4704683695      -14.4852674956  MEMB      158             0.0000000000
     18150       158  SLPC      H2Y            24.9865132544      -25.2984941753      -15.6327305176  MEMB      158             0.0000000000
     18151       158  SLPC      C23            20.8195606449      -22.8024356791      -14.1177215900  MEMB      158             0.0000000000
     18152       158  SLPC      H3R            21.0911166176      -21.7292894730      -14.2122508121  MEMB      158             0.0000000000
     18153       158  SLPC      H3S            21.7740842391      -23.1596262754      -14.5600118113  MEMB      158             0.0000000000
     18154       158  SLPC      C24            20.6415766856      -23.0397096175      -12.5955782741  MEMB      158             0.0000000000
     18155       158  SLPC      H4R            19.6971619402      -22.5509887618      -12.2737808660  MEMB      158             0.0000000000
     18156       158  SLPC      H4S            21.4602924008      -22.4827101901      -12.0918152507  MEMB      158             0.0000000000
     18157       158  SLPC      C25            20.6004539550      -24.5125229124      -12.0797334510  MEMB      158             0.0000000000
     18158       158  SLPC      H5R            21.4791311510      -25.0614334000      -12.4809127792  MEMB      158             0.0000000000
     18159       158  SLPC      H5S            19.7495640735      -25.0410198099      -12.5603562110  MEMB      158             0.0000000000
     18160       158  SLPC      C26            20.6135743995      -24.7312484355      -10.5359212864  MEMB      158             0.0000000000
     18161       158  SLPC      H6R            20.4557783523      -25.8100405959      -10.3223134746  MEMB      158             0.0000000000
     18162       158  SLPC      H6S            19.6340686337      -24.4315825975      -10.1057008245  MEMB      158             0.0000000000
     18163       158  SLPC      C27            21.6848408512      -23.8671549883       -9.8012366499  MEMB      158             0.0000000000
     18164       158  SLPC      H7R            21.7020716416      -22.7912415090      -10.0777041381  MEMB      158             0.0000000000
     18165       158  SLPC      H7S            22.6427376719      -24.3493961153      -10.0914056202  MEMB      158             0.0000000000
     18166       158  SLPC      C28            21.5007591283      -23.9326284611       -8.2505985226  MEMB      158             0.0000000000
     18167       158  SLPC      H8R            20.5109122256      -23.4464071444       -8.1160140336  MEMB      158             0.0000000000
     18168       158  SLPC      H8S            22.1444464151      -23.2347313044       -7.6735998688  MEMB      158             0.0000000000
     18169       158  SLPC      C29            21.6219473401      -25.3090816701       -7.6510077802  MEMB      158             0.0000000000
     18170       158  SLPC      H9R            21.0897135702      -26.0491597870       -8.2666472413  MEMB      158             0.0000000000
     18171       158  SLPC      C210           22.2547072916      -25.8215574429       -6.6004445060  MEMB      158             0.0000000000
     18172       158  SLPC      H10R           22.1154669218      -26.8911920411       -6.3848210473  MEMB      158             0.0000000000
     18173       158  SLPC      C211           23.1436321218      -24.9642464108       -5.7896566371  MEMB      158             0.0000000000
     18174       158  SLPC      H11R           23.4394659012      -24.0242421426       -6.3026818297  MEMB      158             0.0000000000
     18175       158  SLPC      H11S           24.0391322030      -25.5999362019       -5.6214323878  MEMB      158             0.0000000000
     18176       158  SLPC      C212           22.5177662126      -24.4755069101       -4.5363856601  MEMB      158             0.0000000000
     18177       158  SLPC      H12R           22.0404854581      -23.4861837681       -4.5950623450  MEMB      158             0.0000000000
     18178       158  SLPC      C213           22.5728836386      -25.0566762211       -3.3216899691  MEMB      158             0.0000000000
     18179       158  SLPC      H13R           22.1047467724      -24.5123449469       -2.4882928341  MEMB      158             0.0000000000
     18180       158  SLPC      C214           23.1811716780      -26.3789340780       -2.9639451022  MEMB      158             0.0000000000
     18181       158  SLPC      H14R           23.8814679877      -26.2196996135       -2.1162714871  MEMB      158             0.0000000000
     18182       158  SLPC      H14S           23.8305281799      -26.7300338870       -3.7942373225  MEMB      158             0.0000000000
     18183       158  SLPC      C215           22.1771609557      -27.4434197320       -2.5191320564  MEMB      158             0.0000000000
     18184       158  SLPC      H15R           21.3875144174      -27.7486360088       -3.2385917986  MEMB      158             0.0000000000
     18185       158  SLPC      H15S           21.5868836728      -27.1821221343       -1.6149104619  MEMB      158             0.0000000000
     18186       158  SLPC      C216           22.9038476771      -28.6857202581       -2.1371161457  MEMB      158             0.0000000000
     18187       158  SLPC      H16R           22.1826786570      -29.4735567865       -1.8312545942  MEMB      158             0.0000000000
     18188       158  SLPC      H16S           23.5171850215      -28.4631415141       -1.2378953800  MEMB      158             0.0000000000
     18189       158  SLPC      C217           23.8639442263      -29.3348662782       -3.2057017044  MEMB      158             0.0000000000
     18190       158  SLPC      H17R           24.0904280332      -30.3969068004       -2.9709765116  MEMB      158             0.0000000000
     18191       158  SLPC      H17S           24.8616377197      -28.8506879058       -3.2727813476  MEMB      158             0.0000000000
     18192       158  SLPC      C218           23.2039130294      -29.4578941621       -4.5470578662  MEMB      158             0.0000000000
     18193       158  SLPC      H18R           22.3143058147      -30.1234140850       -4.5487998257  MEMB      158             0.0000000000
     18194       158  SLPC      H18S           23.9571692315      -29.7760794197       -5.2991780493  MEMB      158             0.0000000000
     18195       158  SLPC      H18T           22.9189258708      -28.4137877054       -4.7979474635  MEMB      158             0.0000000000
     18196       158  SLPC      C33            25.0512162925      -26.3216535699      -13.7212665815  MEMB      158             0.0000000000
     18197       158  SLPC      H3X            25.5420687846      -27.1623265978      -14.2566673753  MEMB      158             0.0000000000
     18198       158  SLPC      H3Y            24.2303575930      -26.6923520520      -13.0708096343  MEMB      158             0.0000000000
     18199       158  SLPC      C34            26.1637716213      -25.6795562672      -12.8070232517  MEMB      158             0.0000000000
     18200       158  SLPC      H4X            26.9059474368      -25.4137824627      -13.5898770563  MEMB      158             0.0000000000
     18201       158  SLPC      H4Y            26.6757628301      -26.4357337558      -12.1742665245  MEMB      158             0.0000000000
     18202       158  SLPC      C35            25.7749345666      -24.4286915831      -12.0151343736  MEMB      158             0.0000000000
     18203       158  SLPC      H5X            24.8058521168      -24.6015513644      -11.5000420860  MEMB      158             0.0000000000
     18204       158  SLPC      H5Y            25.4892116159      -23.6455601443      -12.7495646099  MEMB      158             0.0000000000
     18205       158  SLPC      C36            26.7717758864      -24.0280059436      -10.8989190610  MEMB      158             0.0000000000
     18206       158  SLPC      H6X            27.7999763297      -24.1126682653      -11.3111775761  MEMB      158             0.0000000000
     18207       158  SLPC      H6Y            26.7024106923      -24.7124767123      -10.0265606161  MEMB      158             0.0000000000
     18208       158  SLPC      C37            26.8167840759      -22.5337440944      -10.5895025520  MEMB      158             0.0000000000
     18209       158  SLPC      H7X            27.1438740269      -21.9577029376      -11.4814160278  MEMB      158             0.0000000000
     18210       158  SLPC      H7Y            27.5977845805      -22.4260565604       -9.8067109119  MEMB      158             0.0000000000
     18211       158  SLPC      C38            25.5280459643      -21.8399782897      -10.1292199948  MEMB      158             0.0000000000
     18212       158  SLPC      H8X            25.3252671270      -22.1130443631       -9.0715640251  MEMB      158             0.0000000000
     18213       158  SLPC      H8Y            24.7727105494      -22.2359583026      -10.8412520176  MEMB      158             0.0000000000
     18214       158  SLPC      C39            25.6607645781      -20.2909021229      -10.1679469094  MEMB      158             0.0000000000
     18215       158  SLPC      H9X            26.1207185162      -20.0413226949      -11.1479841088  MEMB      158             0.0000000000
     18216       158  SLPC      H9Y            26.3889081578      -19.9781685243       -9.3892773799  MEMB      158             0.0000000000
     18217       158  SLPC      C310           24.3368855178      -19.5749274240       -9.9679602192  MEMB      158             0.0000000000
     18218       158  SLPC      H10X           23.6344024766      -19.8096220925      -10.7960648022  MEMB      158             0.0000000000
     18219       158  SLPC      H10Y           24.5349419171      -18.4817275629       -9.9708451750  MEMB      158             0.0000000000
     18220       158  SLPC      C311           23.5629179002      -19.9738911087       -8.6404872126  MEMB      158             0.0000000000
     18221       158  SLPC      H11X           24.1801811858      -19.8476521324       -7.7254073232  MEMB      158             0.0000000000
     18222       158  SLPC      H11Y           23.2631692579      -21.0369844169       -8.7600881887  MEMB      158             0.0000000000
     18223       158  SLPC      C312           22.4115645427      -19.0670764827       -8.2706135512  MEMB      158             0.0000000000
     18224       158  SLPC      H12X           21.6141252940      -19.0982929960       -9.0435541507  MEMB      158             0.0000000000
     18225       158  SLPC      H12Y           22.8210942035      -18.0368558364       -8.1981407057  MEMB      158             0.0000000000
     18226       158  SLPC      C313           21.9518847093      -19.3329733271       -6.8670794742  MEMB      158             0.0000000000
     18227       158  SLPC      H13X           21.1644411598      -18.5815220895       -6.6444247796  MEMB      158             0.0000000000
     18228       158  SLPC      H13Y           22.6681830727      -19.3078465072       -6.0181944319  MEMB      158             0.0000000000
     18229       158  SLPC      C314           21.2115994338      -20.6900511220       -6.7325196716  MEMB      158             0.0000000000
     18230       158  SLPC      H14X           21.9791082712      -21.4931482077       -6.7494333493  MEMB      158             0.0000000000
     18231       158  SLPC      H14Y           20.4683911256      -20.7889494846       -7.5523864330  MEMB      158             0.0000000000
     18232       158  SLPC      C315           20.4495377866      -20.8603911558       -5.3351475601  MEMB      158             0.0000000000
     18233       158  SLPC      H15X           20.3994239918      -19.9735766836       -4.6677869879  MEMB      158             0.0000000000
     18234       158  SLPC      H15Y           21.0072858841      -21.7048432839       -4.8767382803  MEMB      158             0.0000000000
     18235       158  SLPC      C316           19.0473916457      -21.4385663968       -5.4942251590  MEMB      158             0.0000000000
     18236       158  SLPC      H16X           19.1890925650      -22.4030263935       -6.0271970573  MEMB      158             0.0000000000
     18237       158  SLPC      H16Y           18.4154948356      -20.7832443723       -6.1310778430  MEMB      158             0.0000000000
     18238       158  SLPC      C317           18.4855961467      -21.6561812277       -3.9905812469  MEMB      158             0.0000000000
     18239       158  SLPC      H17X           17.4444495180      -22.0105625934       -4.1478985695  MEMB      158             0.0000000000
     18240       158  SLPC      H17Y           18.6504103343      -20.7194473969       -3.4163971878  MEMB      158             0.0000000000
     18241       158  SLPC      C318           19.0964863990      -22.8743353006       -3.2776920618  MEMB      158             0.0000000000
     18242       158  SLPC      H18X           18.6830462502      -22.8710639984       -2.2464896416  MEMB      158             0.0000000000
     18243       158  SLPC      H18Y           20.1938355104      -22.8053863135       -3.1183433459  MEMB      158             0.0000000000
     18244       158  SLPC      H18Z           18.8809776082      -23.8766092523       -3.7058551088  MEMB      158             0.0000000000
     18245       159  SOPE      N               9.7990979097      -27.4261467916      -23.3085352486  MEMB      159             0.0000000000
     18246       159  SOPE      HN1            10.8244339819      -27.3088513776      -23.1799743184  MEMB      159             0.0000000000
     18247       159  SOPE      HN2             9.5744409570      -27.8192799130      -24.2447913036  MEMB      159             0.0000000000
     18248       159  SOPE      HN3             9.4371814914      -26.4573572140      -23.1987022468  MEMB      159             0.0000000000
     18249       159  SOPE      C12             9.2616440515      -28.3586159131      -22.2141028376  MEMB      159             0.0000000000
     18250       159  SOPE      H12A            8.2365687455      -28.6090163835      -22.5617251250  MEMB      159             0.0000000000
     18251       159  SOPE      H12B            9.1992770620      -27.7679749532      -21.2751808591  MEMB      159             0.0000000000
     18252       159  SOPE      C11            10.1253623334      -29.6295843658      -22.0469473550  MEMB      159             0.0000000000
     18253       159  SOPE      H11A           11.1179619784      -29.2013285214      -21.7906978810  MEMB      159             0.0000000000
     18254       159  SOPE      H11B           10.2348027613      -30.2009281601      -22.9934725237  MEMB      159             0.0000000000
     18255       159  SOPE      P              10.5613220677      -31.2556782810      -20.0908527565  MEMB      159             0.0000000000
     18256       159  SOPE      O13            11.5055419358      -30.4396041187      -19.3783348092  MEMB      159             0.0000000000
     18257       159  SOPE      O14            11.1177760603      -32.2796720962      -21.0180701233  MEMB      159             0.0000000000
     18258       159  SOPE      O12             9.5626103425      -30.4120751255      -20.9715731739  MEMB      159             0.0000000000
     18259       159  SOPE      O11             9.6528021018      -31.9753201114      -18.9715836818  MEMB      159             0.0000000000
     18260       159  SOPE      C1              8.3322069608      -32.3175465018      -19.4036778627  MEMB      159             0.0000000000
     18261       159  SOPE      HA              8.3450718008      -32.8450402098      -20.3813822399  MEMB      159             0.0000000000
     18262       159  SOPE      HB              7.7075816494      -31.4238738573      -19.6170164808  MEMB      159             0.0000000000
     18263       159  SOPE      C2              7.6912348562      -33.1393211882      -18.2563679639  MEMB      159             0.0000000000
     18264       159  SOPE      HS              6.6369150583      -33.3406680498      -18.5430567594  MEMB      159             0.0000000000
     18265       159  SOPE      O21             7.7595283416      -32.5149211201      -16.9055185913  MEMB      159             0.0000000000
     18266       159  SOPE      C21             7.3079121861      -31.3224214535      -16.7010077995  MEMB      159             0.0000000000
     18267       159  SOPE      O22             6.5710823182      -30.7168124761      -17.4761754937  MEMB      159             0.0000000000
     18268       159  SOPE      C22             7.6888741846      -30.7886828867      -15.4040712912  MEMB      159             0.0000000000
     18269       159  SOPE      H2R             8.4642263331      -31.4027488156      -14.8980347213  MEMB      159             0.0000000000
     18270       159  SOPE      H2S             6.8843595549      -30.6958638722      -14.6435043230  MEMB      159             0.0000000000
     18271       159  SOPE      C3              8.3499459198      -34.5684738286      -18.1152542458  MEMB      159             0.0000000000
     18272       159  SOPE      HX              8.4711557276      -34.9915397972      -19.1353740054  MEMB      159             0.0000000000
     18273       159  SOPE      HY              7.6954318012      -35.2210521251      -17.4987527171  MEMB      159             0.0000000000
     18274       159  SOPE      O31             9.6583950573      -34.3752909453      -17.5101436726  MEMB      159             0.0000000000
     18275       159  SOPE      C31            10.8286656580      -34.5031063117      -18.0901767284  MEMB      159             0.0000000000
     18276       159  SOPE      O32            10.9660596807      -34.9589412735      -19.2279385516  MEMB      159             0.0000000000
     18277       159  SOPE      C32            11.9021073092      -34.1024593916      -17.1113923934  MEMB      159             0.0000000000
     18278       159  SOPE      H2X            11.7457808063      -33.0450875759      -16.8083282909  MEMB      159             0.0000000000
     18279       159  SOPE      H2Y            12.9508459221      -34.2222838906      -17.4579617616  MEMB      159             0.0000000000
     18280       159  SOPE      C23             8.3604838450      -29.3994134971      -15.4456244393  MEMB      159             0.0000000000
     18281       159  SOPE      H3R             7.5711849035      -28.6175386037      -15.4452786815  MEMB      159             0.0000000000
     18282       159  SOPE      H3S             8.8964574206      -29.1734309982      -16.3921894827  MEMB      159             0.0000000000
     18283       159  SOPE      C24             9.3941051497      -29.2772651918      -14.3238065506  MEMB      159             0.0000000000
     18284       159  SOPE      H4R             8.9655884333      -29.7235512860      -13.4010265171  MEMB      159             0.0000000000
     18285       159  SOPE      H4S            10.2919910048      -29.8004413684      -14.7167551934  MEMB      159             0.0000000000
     18286       159  SOPE      C25             9.6132855251      -27.8560664669      -13.7837307664  MEMB      159             0.0000000000
     18287       159  SOPE      H5R            10.1480908891      -27.2955116523      -14.5800237965  MEMB      159             0.0000000000
     18288       159  SOPE      H5S             8.6820724723      -27.2517400627      -13.7395407766  MEMB      159             0.0000000000
     18289       159  SOPE      C26            10.4612450212      -27.6594048434      -12.4359594400  MEMB      159             0.0000000000
     18290       159  SOPE      H6R            11.2245665784      -28.4615568378      -12.5265856223  MEMB      159             0.0000000000
     18291       159  SOPE      H6S            10.9073414196      -26.6419732169      -12.4482866245  MEMB      159             0.0000000000
     18292       159  SOPE      C27             9.6777335878      -27.9034343444      -11.2421755394  MEMB      159             0.0000000000
     18293       159  SOPE      H7R             8.8772363274      -27.1373618563      -11.3237771275  MEMB      159             0.0000000000
     18294       159  SOPE      H7S             9.2091163329      -28.9102456980      -11.2745765133  MEMB      159             0.0000000000
     18295       159  SOPE      C28            10.5052170943      -27.7333610802      -10.0497586724  MEMB      159             0.0000000000
     18296       159  SOPE      H8R            11.4236476897      -28.3585059190      -10.0495488153  MEMB      159             0.0000000000
     18297       159  SOPE      H8S            10.8753856121      -26.6950882061       -9.9108861203  MEMB      159             0.0000000000
     18298       159  SOPE      C29             9.7058421006      -28.2231086443       -8.8771100560  MEMB      159             0.0000000000
     18299       159  SOPE      H91             9.5931991944      -29.3172427640       -8.8636241506  MEMB      159             0.0000000000
     18300       159  SOPE      C210            9.2489943534      -27.4848894517       -7.8367243332  MEMB      159             0.0000000000
     18301       159  SOPE      H101            8.6632479640      -28.0531566015       -7.0991789143  MEMB      159             0.0000000000
     18302       159  SOPE      C211            9.3906771479      -26.0274303235       -7.5197959027  MEMB      159             0.0000000000
     18303       159  SOPE      H11R            8.4154345177      -25.5859533668       -7.2226086708  MEMB      159             0.0000000000
     18304       159  SOPE      H11S            9.6015360591      -25.4949620541       -8.4718132959  MEMB      159             0.0000000000
     18305       159  SOPE      C212           10.4439953771      -25.5817228100       -6.4231550114  MEMB      159             0.0000000000
     18306       159  SOPE      H12R           10.4767271580      -24.4877680289       -6.2320725500  MEMB      159             0.0000000000
     18307       159  SOPE      H12S           11.4513699201      -25.7922238514       -6.8417327563  MEMB      159             0.0000000000
     18308       159  SOPE      C213           10.2717708431      -26.3153940056       -5.0188480952  MEMB      159             0.0000000000
     18309       159  SOPE      H13R           10.2536570141      -27.4186358755       -5.1486577207  MEMB      159             0.0000000000
     18310       159  SOPE      H13S            9.2742054877      -26.0653229262       -4.5985526526  MEMB      159             0.0000000000
     18311       159  SOPE      C214           11.3434884276      -25.9072629859       -3.9564352272  MEMB      159             0.0000000000
     18312       159  SOPE      H14R           11.4359140418      -24.8022541343       -3.8876310871  MEMB      159             0.0000000000
     18313       159  SOPE      H14S           12.3216188111      -26.1687963961       -4.4138000013  MEMB      159             0.0000000000
     18314       159  SOPE      C215           11.1717779617      -26.8039640614       -2.7596220731  MEMB      159             0.0000000000
     18315       159  SOPE      H15R           11.0740681234      -27.8700253431       -3.0567528755  MEMB      159             0.0000000000
     18316       159  SOPE      H15S           10.2520072140      -26.5002568201       -2.2154672428  MEMB      159             0.0000000000
     18317       159  SOPE      C216           12.2609236516      -26.7347741175       -1.7204911170  MEMB      159             0.0000000000
     18318       159  SOPE      H16R           12.3810775501      -25.6890673456       -1.3649881149  MEMB      159             0.0000000000
     18319       159  SOPE      H16S           13.1854163740      -26.9453575030       -2.2995320093  MEMB      159             0.0000000000
     18320       159  SOPE      C217           12.1530129441      -27.7532695986       -0.6082290701  MEMB      159             0.0000000000
     18321       159  SOPE      H17R           13.1054944368      -27.7111163945       -0.0378572927  MEMB      159             0.0000000000
     18322       159  SOPE      H17S           12.0690326856      -28.8146675500       -0.9255657253  MEMB      159             0.0000000000
     18323       159  SOPE      C218           11.1837233140      -27.4817935560        0.5534792811  MEMB      159             0.0000000000
     18324       159  SOPE      H18R           11.4164567155      -28.1968708225        1.3712941338  MEMB      159             0.0000000000
     18325       159  SOPE      H18S           10.1921932518      -27.6931818851        0.0990531684  MEMB      159             0.0000000000
     18326       159  SOPE      H18T           11.2014805460      -26.4237879817        0.8920499429  MEMB      159             0.0000000000
     18327       159  SOPE      C33            11.6299166176      -34.9919391399      -15.8744167869  MEMB      159             0.0000000000
     18328       159  SOPE      H3X            12.1291576996      -35.9503503173      -16.1323445245  MEMB      159             0.0000000000
     18329       159  SOPE      H3Y            10.6051993512      -35.2033212913      -15.5007951496  MEMB      159             0.0000000000
     18330       159  SOPE      C34            12.3281799616      -34.3171394769      -14.6254612041  MEMB      159             0.0000000000
     18331       159  SOPE      H4X            13.4069931326      -34.1145462713      -14.7970395858  MEMB      159             0.0000000000
     18332       159  SOPE      H4Y            12.2919538205      -35.1048383238      -13.8428124807  MEMB      159             0.0000000000
     18333       159  SOPE      C35            11.5599789129      -33.0823492746      -14.0620752892  MEMB      159             0.0000000000
     18334       159  SOPE      H5X            10.5212072431      -33.3249126143      -14.3726191288  MEMB      159             0.0000000000
     18335       159  SOPE      H5Y            11.8927101720      -32.1664286302      -14.5956484706  MEMB      159             0.0000000000
     18336       159  SOPE      C36            11.3564188102      -32.8719441576      -12.5192318274  MEMB      159             0.0000000000
     18337       159  SOPE      H6X            10.7779535544      -33.7159287895      -12.0863473339  MEMB      159             0.0000000000
     18338       159  SOPE      H6Y            10.6671751960      -32.0011729087      -12.4872670419  MEMB      159             0.0000000000
     18339       159  SOPE      C37            12.6620370263      -32.5173271345      -11.7376973518  MEMB      159             0.0000000000
     18340       159  SOPE      H7X            13.1367977719      -31.6499683661      -12.2442663513  MEMB      159             0.0000000000
     18341       159  SOPE      H7Y            13.4149263690      -33.3127960522      -11.5513977767  MEMB      159             0.0000000000
     18342       159  SOPE      C38            12.3837597494      -32.0336857508      -10.2698597200  MEMB      159             0.0000000000
     18343       159  SOPE      H8X            11.6455088033      -31.2077885348      -10.1850043838  MEMB      159             0.0000000000
     18344       159  SOPE      H8Y            13.3657557894      -31.5959948093       -9.9898039401  MEMB      159             0.0000000000
     18345       159  SOPE      C39            12.0661971888      -33.0718467387       -9.1944451695  MEMB      159             0.0000000000
     18346       159  SOPE      H9X            12.7954351538      -33.8796938935       -9.4178637705  MEMB      159             0.0000000000
     18347       159  SOPE      H9Y            11.0656755977      -33.5310321825       -9.3442013298  MEMB      159             0.0000000000
     18348       159  SOPE      C310           12.2388719596      -32.5327674590       -7.8302584703  MEMB      159             0.0000000000
     18349       159  SOPE      H10X           13.1157991816      -31.8568168415       -7.9219665797  MEMB      159             0.0000000000
     18350       159  SOPE      H10Y           12.6224396908      -33.3488126258       -7.1812073576  MEMB      159             0.0000000000
     18351       159  SOPE      C311           11.0885962185      -31.7617414652       -7.1574476549  MEMB      159             0.0000000000
     18352       159  SOPE      H11X           10.2749554289      -32.4307109266       -6.8041922237  MEMB      159             0.0000000000
     18353       159  SOPE      H11Y           10.8168965093      -30.9926518441       -7.9117687714  MEMB      159             0.0000000000
     18354       159  SOPE      C312           11.5727959916      -30.8407346468       -5.9835311878  MEMB      159             0.0000000000
     18355       159  SOPE      H12X           10.6318136380      -30.5010060759       -5.5003562854  MEMB      159             0.0000000000
     18356       159  SOPE      H12Y           12.0962395989      -29.8972958393       -6.2485804048  MEMB      159             0.0000000000
     18357       159  SOPE      C313           12.4230200760      -31.5230348302       -4.9101772602  MEMB      159             0.0000000000
     18358       159  SOPE      H13X           13.4723906070      -31.6962170418       -5.2313479734  MEMB      159             0.0000000000
     18359       159  SOPE      H13Y           11.9605367566      -32.5202235457       -4.7487922091  MEMB      159             0.0000000000
     18360       159  SOPE      C314           12.4668689751      -30.8551595199       -3.5718450153  MEMB      159             0.0000000000
     18361       159  SOPE      H14X           11.4487031995      -30.4500778616       -3.3886282539  MEMB      159             0.0000000000
     18362       159  SOPE      H14Y           13.1318458460      -29.9704966672       -3.4743881264  MEMB      159             0.0000000000
     18363       159  SOPE      C315           12.6188823068      -31.9037816188       -2.4901728045  MEMB      159             0.0000000000
     18364       159  SOPE      H15X           11.8671842016      -32.7191496231       -2.5568493117  MEMB      159             0.0000000000
     18365       159  SOPE      H15Y           12.3548455392      -31.4071439030       -1.5320715815  MEMB      159             0.0000000000
     18366       159  SOPE      C316           14.0332590341      -32.6022021932       -2.5556952032  MEMB      159             0.0000000000
     18367       159  SOPE      H16X           14.5743556111      -32.4464884510       -3.5134461562  MEMB      159             0.0000000000
     18368       159  SOPE      H16Y           13.8271972398      -33.6655455975       -2.3083886308  MEMB      159             0.0000000000
     18369       159  SOPE      C317           15.0266208331      -31.9378963448       -1.5921248330  MEMB      159             0.0000000000
     18370       159  SOPE      H17X           15.1409189323      -30.8441594498       -1.7502278661  MEMB      159             0.0000000000
     18371       159  SOPE      H17Y           16.0458684411      -32.3646238256       -1.7077041631  MEMB      159             0.0000000000
     18372       159  SOPE      C318           14.6596879601      -32.1038708801       -0.1147583596  MEMB      159             0.0000000000
     18373       159  SOPE      H18X           15.2172506432      -31.4897466087        0.6243606192  MEMB      159             0.0000000000
     18374       159  SOPE      H18Y           14.9431470843      -33.1202109983        0.2331276801  MEMB      159             0.0000000000
     18375       159  SOPE      H18Z           13.5790386688      -32.0388915365        0.1348326440  MEMB      159             0.0000000000
     18376       160  SAPI      C12           -29.1912648328      -16.5274186240      -24.4145888933  MEMB      160             0.0000000000
     18377       160  SAPI      H2            -29.7957354331      -17.2345121115      -23.8071722977  MEMB      160             0.0000000000
     18378       160  SAPI      O2            -27.8835293760      -17.0235450370      -24.7703349242  MEMB      160             0.0000000000
     18379       160  SAPI      HO2           -27.6576916273      -17.7187848185      -24.1480497083  MEMB      160             0.0000000000
     18380       160  SAPI      C13           -29.9692102424      -16.2956168348      -25.6658180163  MEMB      160             0.0000000000
     18381       160  SAPI      H3            -30.9902000567      -15.9410111187      -25.4086106362  MEMB      160             0.0000000000
     18382       160  SAPI      O3            -30.1695927989      -17.4447195960      -26.4513996449  MEMB      160             0.0000000000
     18383       160  SAPI      HO3           -29.3846860563      -17.9707844510      -26.2817621344  MEMB      160             0.0000000000
     18384       160  SAPI      C14           -29.3121541623      -15.1790730513      -26.5435372802  MEMB      160             0.0000000000
     18385       160  SAPI      H4            -28.3506788956      -15.5963808231      -26.9119670601  MEMB      160             0.0000000000
     18386       160  SAPI      O4            -29.9432356117      -14.9374514452      -27.7334029309  MEMB      160             0.0000000000
     18387       160  SAPI      HO4           -30.6620336003      -14.3204926027      -27.5775462183  MEMB      160             0.0000000000
     18388       160  SAPI      C15           -29.1574767493      -13.8783977616      -25.7495496274  MEMB      160             0.0000000000
     18389       160  SAPI      H5            -30.1434025334      -13.4211885395      -25.5188308361  MEMB      160             0.0000000000
     18390       160  SAPI      O5            -28.6212364121      -12.8631707660      -26.5532244953  MEMB      160             0.0000000000
     18391       160  SAPI      HO5           -27.8553653471      -13.3322182909      -26.8923942159  MEMB      160             0.0000000000
     18392       160  SAPI      C16           -28.3434860553      -14.1862805610      -24.5129604196  MEMB      160             0.0000000000
     18393       160  SAPI      H6            -27.3001751783      -14.4950043406      -24.7377118353  MEMB      160             0.0000000000
     18394       160  SAPI      O6            -28.1087447714      -13.0209381926      -23.7467444395  MEMB      160             0.0000000000
     18395       160  SAPI      HO6           -27.4524217887      -12.5570166975      -24.2717369237  MEMB      160             0.0000000000
     18396       160  SAPI      C11           -29.0183838475      -15.2455740021      -23.6363410141  MEMB      160             0.0000000000
     18397       160  SAPI      H1            -30.0407709242      -14.8881145906      -23.3888164011  MEMB      160             0.0000000000
     18398       160  SAPI      P             -28.9381612111      -14.9305966545      -20.9981368780  MEMB      160             0.0000000000
     18399       160  SAPI      O13           -30.3480565901      -15.2875687859      -20.8419066719  MEMB      160             0.0000000000
     18400       160  SAPI      O14           -28.6224462862      -13.4729269172      -20.8150496530  MEMB      160             0.0000000000
     18401       160  SAPI      O12           -28.3794478476      -15.6526459807      -22.4115415262  MEMB      160             0.0000000000
     18402       160  SAPI      O11           -28.0118947892      -15.7112223554      -19.9477424218  MEMB      160             0.0000000000
     18403       160  SAPI      C1            -28.6097837401      -16.9742872743      -19.3717396027  MEMB      160             0.0000000000
     18404       160  SAPI      HA            -29.2192322767      -17.5469242063      -20.1031631240  MEMB      160             0.0000000000
     18405       160  SAPI      HB            -27.7853702259      -17.6547549755      -19.0690395501  MEMB      160             0.0000000000
     18406       160  SAPI      C2            -29.4462830013      -16.6910306238      -18.0948434327  MEMB      160             0.0000000000
     18407       160  SAPI      HS            -30.3384121646      -16.0658597675      -18.3129902264  MEMB      160             0.0000000000
     18408       160  SAPI      O21           -28.6244670495      -16.0041765692      -17.1372990176  MEMB      160             0.0000000000
     18409       160  SAPI      C21           -28.4155104274      -14.6634897444      -17.0343370129  MEMB      160             0.0000000000
     18410       160  SAPI      O22           -28.9859413526      -13.8397859209      -17.7287065040  MEMB      160             0.0000000000
     18411       160  SAPI      C22           -27.5288431990      -14.4609781507      -15.8372840836  MEMB      160             0.0000000000
     18412       160  SAPI      H2R           -27.7357223398      -15.2688865633      -15.1032500166  MEMB      160             0.0000000000
     18413       160  SAPI      H2S           -26.4479231486      -14.5839288849      -16.0627076223  MEMB      160             0.0000000000
     18414       160  SAPI      C3            -29.9640620067      -18.0051110739      -17.5190398470  MEMB      160             0.0000000000
     18415       160  SAPI      HX            -29.1285376108      -18.6922503932      -17.2659402507  MEMB      160             0.0000000000
     18416       160  SAPI      HY            -30.5207566006      -18.5985328812      -18.2755203691  MEMB      160             0.0000000000
     18417       160  SAPI      O31           -30.6510661997      -17.7067323726      -16.2734816488  MEMB      160             0.0000000000
     18418       160  SAPI      C31           -30.7538960804      -18.7776647289      -15.5101804095  MEMB      160             0.0000000000
     18419       160  SAPI      O32           -30.5481629588      -19.9682189608      -15.8555334068  MEMB      160             0.0000000000
     18420       160  SAPI      C32           -31.3629969590      -18.3448530656      -14.1826435237  MEMB      160             0.0000000000
     18421       160  SAPI      H2X           -32.0934938611      -19.1153392209      -13.8554638505  MEMB      160             0.0000000000
     18422       160  SAPI      H2Y           -31.8538027382      -17.3634776395      -14.3568066676  MEMB      160             0.0000000000
     18423       160  SAPI      C23           -27.8293978600      -13.1120918924      -15.1661960473  MEMB      160             0.0000000000
     18424       160  SAPI      H3R           -28.7413330189      -13.1646879281      -14.5337968255  MEMB      160             0.0000000000
     18425       160  SAPI      H3S           -27.9464545419      -12.2345366170      -15.8374004531  MEMB      160             0.0000000000
     18426       160  SAPI      C24           -26.6890134192      -12.7399107767      -14.1385149502  MEMB      160             0.0000000000
     18427       160  SAPI      H4R           -27.0116371827      -11.7477780871      -13.7565363101  MEMB      160             0.0000000000
     18428       160  SAPI      H4S           -25.7689690742      -12.5452628969      -14.7300817244  MEMB      160             0.0000000000
     18429       160  SAPI      C25           -26.7145083439      -13.5906948880      -12.9299839114  MEMB      160             0.0000000000
     18430       160  SAPI      H5R           -26.0229568972      -14.4361436753      -13.0602645277  MEMB      160             0.0000000000
     18431       160  SAPI      C26           -27.3249273161      -13.4072249459      -11.7565117810  MEMB      160             0.0000000000
     18432       160  SAPI      H6R           -27.2567499183      -14.1951005590      -10.9919172038  MEMB      160             0.0000000000
     18433       160  SAPI      C27           -28.2017552091      -12.2175839271      -11.3778952117  MEMB      160             0.0000000000
     18434       160  SAPI      H7R           -28.1433018017      -11.3475538785      -12.0663366442  MEMB      160             0.0000000000
     18435       160  SAPI      H7S           -27.6965018475      -11.8718530704      -10.4507970991  MEMB      160             0.0000000000
     18436       160  SAPI      C28           -29.6229495372      -12.5185685648      -11.1624139454  MEMB      160             0.0000000000
     18437       160  SAPI      H8R           -30.2840542091      -12.3828167790      -12.0310410230  MEMB      160             0.0000000000
     18438       160  SAPI      C29           -30.1911423527      -13.1819929385      -10.1798143908  MEMB      160             0.0000000000
     18439       160  SAPI      H9R           -31.2302679659      -13.5303670384      -10.2739070161  MEMB      160             0.0000000000
     18440       160  SAPI      C210          -29.4830989579      -13.8198156957       -8.9675977008  MEMB      160             0.0000000000
     18441       160  SAPI      H10R          -28.6612175496      -13.2756627832       -8.4550266355  MEMB      160             0.0000000000
     18442       160  SAPI      H10S          -28.9885253406      -14.7280481381       -9.3735932914  MEMB      160             0.0000000000
     18443       160  SAPI      C211          -30.5350468411      -14.2029566365       -7.9288475590  MEMB      160             0.0000000000
     18444       160  SAPI      H11R          -31.1733827417      -13.3833341242       -7.5672594193  MEMB      160             0.0000000000
     18445       160  SAPI      C212          -30.8534422325      -15.3947387509       -7.3748257401  MEMB      160             0.0000000000
     18446       160  SAPI      H12R          -31.7381167220      -15.4779969435       -6.7264282771  MEMB      160             0.0000000000
     18447       160  SAPI      C213          -30.1797023412      -16.6853135857       -7.7440511696  MEMB      160             0.0000000000
     18448       160  SAPI      H13R          -29.1281618442      -16.5642987616       -8.0815996956  MEMB      160             0.0000000000
     18449       160  SAPI      H13S          -30.7134129657      -17.0977553287       -8.6268683573  MEMB      160             0.0000000000
     18450       160  SAPI      C214          -30.2960575131      -17.8484127251       -6.7340865945  MEMB      160             0.0000000000
     18451       160  SAPI      H14R          -31.1369511812      -18.5574547244       -6.7466236170  MEMB      160             0.0000000000
     18452       160  SAPI      C215          -29.4187787325      -18.0416635234       -5.7309313892  MEMB      160             0.0000000000
     18453       160  SAPI      H15R          -29.6340741065      -18.7254273419       -4.8965960943  MEMB      160             0.0000000000
     18454       160  SAPI      C216          -28.1773935995      -17.2997462401       -5.3601434100  MEMB      160             0.0000000000
     18455       160  SAPI      H16R          -28.5051055715      -16.2528699788       -5.1841434496  MEMB      160             0.0000000000
     18456       160  SAPI      H16S          -27.5033849683      -17.3634740885       -6.2410362663  MEMB      160             0.0000000000
     18457       160  SAPI      C217          -27.3201971813      -17.7039097445       -4.1273976132  MEMB      160             0.0000000000
     18458       160  SAPI      H17R          -27.9282135522      -17.4575480452       -3.2307674052  MEMB      160             0.0000000000
     18459       160  SAPI      H17S          -26.4204495673      -17.0525808608       -4.1040294043  MEMB      160             0.0000000000
     18460       160  SAPI      C218          -26.9085342152      -19.1830919768       -4.1081346467  MEMB      160             0.0000000000
     18461       160  SAPI      H18R          -26.1760556412      -19.3361573005       -4.9293330751  MEMB      160             0.0000000000
     18462       160  SAPI      H18S          -27.7776240990      -19.8230486949       -4.3716853784  MEMB      160             0.0000000000
     18463       160  SAPI      C219          -26.3563154291      -19.6413583408       -2.7376344860  MEMB      160             0.0000000000
     18464       160  SAPI      H19R          -26.3765038183      -20.7521658953       -2.7420550930  MEMB      160             0.0000000000
     18465       160  SAPI      H19S          -26.9801184424      -19.2385856476       -1.9112178146  MEMB      160             0.0000000000
     18466       160  SAPI      C220          -24.8928708493      -19.1671218226       -2.3882872675  MEMB      160             0.0000000000
     18467       160  SAPI      H20R          -24.7472065722      -19.5167743654       -1.3438503262  MEMB      160             0.0000000000
     18468       160  SAPI      H20S          -24.7914249350      -18.0746915685       -2.5632890050  MEMB      160             0.0000000000
     18469       160  SAPI      H20T          -24.1583026620      -19.6098839100       -3.0944676434  MEMB      160             0.0000000000
     18470       160  SAPI      C33           -30.2184057994      -18.4231852170      -13.1367791591  MEMB      160             0.0000000000
     18471       160  SAPI      H3X           -30.0628153055      -19.4893607966      -12.8658867340  MEMB      160             0.0000000000
     18472       160  SAPI      H3Y           -30.6323726435      -18.0250301222      -12.1857665098  MEMB      160             0.0000000000
     18473       160  SAPI      C34           -29.0190086845      -17.5506163060      -13.5351503655  MEMB      160             0.0000000000
     18474       160  SAPI      H4X           -29.3544904961      -16.5616690998      -13.9143024582  MEMB      160             0.0000000000
     18475       160  SAPI      H4Y           -28.3307709385      -18.0838948062      -14.2252689963  MEMB      160             0.0000000000
     18476       160  SAPI      C35           -28.1084791076      -17.2463816612      -12.3127539091  MEMB      160             0.0000000000
     18477       160  SAPI      H5X           -28.5915612493      -16.5587903567      -11.5860007261  MEMB      160             0.0000000000
     18478       160  SAPI      H5Y           -27.2302113553      -16.6478438836      -12.6363578422  MEMB      160             0.0000000000
     18479       160  SAPI      C36           -27.6276849775      -18.5294139600      -11.5372966067  MEMB      160             0.0000000000
     18480       160  SAPI      H6X           -26.9816507662      -19.1159889350      -12.2249673803  MEMB      160             0.0000000000
     18481       160  SAPI      H6Y           -28.5195230763      -19.1109423879      -11.2198530152  MEMB      160             0.0000000000
     18482       160  SAPI      C37           -26.8527655901      -18.0323396272      -10.3141762168  MEMB      160             0.0000000000
     18483       160  SAPI      H7X           -26.3273192369      -18.9460314372       -9.9629007224  MEMB      160             0.0000000000
     18484       160  SAPI      H7Y           -27.5843837553      -17.5817451930       -9.6098881934  MEMB      160             0.0000000000
     18485       160  SAPI      C38           -25.6434086083      -17.0758542288      -10.5840343830  MEMB      160             0.0000000000
     18486       160  SAPI      H8X           -26.0209385897      -16.0775512545      -10.8925523741  MEMB      160             0.0000000000
     18487       160  SAPI      H8Y           -25.1440331419      -17.5510091768      -11.4553394711  MEMB      160             0.0000000000
     18488       160  SAPI      C39           -24.5394906794      -16.8461885212       -9.4965117552  MEMB      160             0.0000000000
     18489       160  SAPI      H9X           -23.7215025232      -16.2261606297       -9.9216961825  MEMB      160             0.0000000000
     18490       160  SAPI      H9Y           -24.0176016253      -17.7580813407       -9.1353963549  MEMB      160             0.0000000000
     18491       160  SAPI      C310          -25.2391889968      -16.0927919491       -8.2440291465  MEMB      160             0.0000000000
     18492       160  SAPI      H10X          -25.6155841447      -16.9569858716       -7.6559668031  MEMB      160             0.0000000000
     18493       160  SAPI      H10Y          -26.1396493150      -15.5075627288       -8.5286311794  MEMB      160             0.0000000000
     18494       160  SAPI      C311          -24.3232829102      -15.3110564821       -7.4306926625  MEMB      160             0.0000000000
     18495       160  SAPI      H11X          -24.1532605193      -14.3557475084       -7.9718004025  MEMB      160             0.0000000000
     18496       160  SAPI      H11Y          -23.3625213682      -15.8688444403       -7.4192439480  MEMB      160             0.0000000000
     18497       160  SAPI      C312          -24.8040618613      -14.9768162538       -5.9948143150  MEMB      160             0.0000000000
     18498       160  SAPI      H12X          -24.2109513145      -14.1915290315       -5.4791931857  MEMB      160             0.0000000000
     18499       160  SAPI      H12Y          -24.7258852249      -15.7893945795       -5.2412063548  MEMB      160             0.0000000000
     18500       160  SAPI      C313          -26.1196479306      -14.2965995700       -6.0164527981  MEMB      160             0.0000000000
     18501       160  SAPI      H13X          -26.9138154437      -14.9713323978       -6.4016206794  MEMB      160             0.0000000000
     18502       160  SAPI      H13Y          -26.1811075183      -13.4964172043       -6.7847305318  MEMB      160             0.0000000000
     18503       160  SAPI      C314          -26.5317109046      -13.8310961714       -4.5731517565  MEMB      160             0.0000000000
     18504       160  SAPI      H14X          -25.9419644645      -12.9191180824       -4.3390223989  MEMB      160             0.0000000000
     18505       160  SAPI      H14Y          -26.4536672913      -14.7215844803       -3.9134079591  MEMB      160             0.0000000000
     18506       160  SAPI      C315          -27.9669554697      -13.3613425858       -4.5562376906  MEMB      160             0.0000000000
     18507       160  SAPI      H15X          -28.5335399154      -14.0763488524       -5.1903264727  MEMB      160             0.0000000000
     18508       160  SAPI      H15Y          -28.0989582013      -12.4096424809       -5.1140574326  MEMB      160             0.0000000000
     18509       160  SAPI      C316          -28.6560805616      -13.4829514000       -3.1667961521  MEMB      160             0.0000000000
     18510       160  SAPI      H16X          -28.8297206014      -14.5671833876       -2.9976469710  MEMB      160             0.0000000000
     18511       160  SAPI      H16Y          -29.6705370346      -13.0644161026       -3.3400806192  MEMB      160             0.0000000000
     18512       160  SAPI      C317          -27.9122622132      -12.9393282720       -2.0453794227  MEMB      160             0.0000000000
     18513       160  SAPI      H17X          -27.5434253732      -11.9794207605       -2.4659248104  MEMB      160             0.0000000000
     18514       160  SAPI      H17Y          -27.1073466178      -13.6433511557       -1.7440774006  MEMB      160             0.0000000000
     18515       160  SAPI      C318          -28.7039245287      -12.6373546405       -0.7563256232  MEMB      160             0.0000000000
     18516       160  SAPI      H18X          -29.4945312108      -11.8589995738       -0.8148519617  MEMB      160             0.0000000000
     18517       160  SAPI      H18Y          -28.0347006477      -12.3396248470        0.0790302614  MEMB      160             0.0000000000
     18518       160  SAPI      H18Z          -29.1544224321      -13.6249908236       -0.5197924281  MEMB      160             0.0000000000
     18519       161  SAPI      C12           -30.8018227606       13.8673959032      -23.2495529932  MEMB      161             0.0000000000
     18520       161  SAPI      H2            -30.6004635875       13.2169025934      -22.3716955083  MEMB      161             0.0000000000
     18521       161  SAPI      O2            -29.5466020584       14.1435101742      -23.7944096916  MEMB      161             0.0000000000
     18522       161  SAPI      HO2           -28.9065284725       13.5983456100      -23.3310506886  MEMB      161             0.0000000000
     18523       161  SAPI      C13           -31.6384853378       13.0969404919      -24.2061256252  MEMB      161             0.0000000000
     18524       161  SAPI      H3            -32.6130132096       12.7124518529      -23.8362808699  MEMB      161             0.0000000000
     18525       161  SAPI      O3            -31.0093428080       11.9094760229      -24.7174867923  MEMB      161             0.0000000000
     18526       161  SAPI      HO3           -31.3857041989       11.1282478646      -24.3056193181  MEMB      161             0.0000000000
     18527       161  SAPI      C14           -31.9946158116       13.9976928247      -25.3775962023  MEMB      161             0.0000000000
     18528       161  SAPI      H4            -31.0636338805       14.4269817991      -25.8057367546  MEMB      161             0.0000000000
     18529       161  SAPI      O4            -32.7041094152       13.3012885952      -26.4043547993  MEMB      161             0.0000000000
     18530       161  SAPI      HO4           -32.2415050045       12.4792250926      -26.5827044799  MEMB      161             0.0000000000
     18531       161  SAPI      C15           -32.7130905941       15.1531621760      -24.8471525306  MEMB      161             0.0000000000
     18532       161  SAPI      H5            -33.5533442938       14.7887643448      -24.2182576993  MEMB      161             0.0000000000
     18533       161  SAPI      O5            -33.0982463017       16.0075852491      -25.9721937029  MEMB      161             0.0000000000
     18534       161  SAPI      HO5           -34.0508983648       15.9892783453      -26.0893221020  MEMB      161             0.0000000000
     18535       161  SAPI      C16           -31.8279140071       15.9827368495      -23.9278253235  MEMB      161             0.0000000000
     18536       161  SAPI      H6            -30.8824811876       16.3012588354      -24.4167236695  MEMB      161             0.0000000000
     18537       161  SAPI      O6            -32.4684331907       17.1589483126      -23.5574374435  MEMB      161             0.0000000000
     18538       161  SAPI      HO6           -32.0430419174       17.8764870746      -24.0326011690  MEMB      161             0.0000000000
     18539       161  SAPI      C11           -31.5022685342       15.1336124206      -22.7315241387  MEMB      161             0.0000000000
     18540       161  SAPI      H1            -32.4510273444       14.7814773542      -22.2730717875  MEMB      161             0.0000000000
     18541       161  SAPI      P             -30.2752632979       15.0713717209      -20.2886692480  MEMB      161             0.0000000000
     18542       161  SAPI      O13           -29.3086427502       13.9993114685      -20.4890426452  MEMB      161             0.0000000000
     18543       161  SAPI      O14           -31.5203371899       14.7068048160      -19.5406724178  MEMB      161             0.0000000000
     18544       161  SAPI      O12           -30.7886885550       15.8349864826      -21.7258497625  MEMB      161             0.0000000000
     18545       161  SAPI      O11           -29.6291337245       16.2540303787      -19.4404914959  MEMB      161             0.0000000000
     18546       161  SAPI      C1            -28.3151985750       16.6637184919      -19.8882916781  MEMB      161             0.0000000000
     18547       161  SAPI      HA            -27.5703549671       15.8931618881      -19.5954238251  MEMB      161             0.0000000000
     18548       161  SAPI      HB            -28.2972884400       16.8359121201      -20.9857203179  MEMB      161             0.0000000000
     18549       161  SAPI      C2            -28.0616494419       17.9797288585      -19.1462376874  MEMB      161             0.0000000000
     18550       161  SAPI      HS            -27.1067881468       18.4924658704      -19.3904950188  MEMB      161             0.0000000000
     18551       161  SAPI      O21           -28.1102257717       17.7099113060      -17.7852273566  MEMB      161             0.0000000000
     18552       161  SAPI      C21           -27.1800326512       17.0064589525      -17.2271359349  MEMB      161             0.0000000000
     18553       161  SAPI      O22           -26.1275910811       16.6498904513      -17.7606097574  MEMB      161             0.0000000000
     18554       161  SAPI      C22           -27.6421570370       16.7327674625      -15.7625781672  MEMB      161             0.0000000000
     18555       161  SAPI      H2R           -28.0885621824       17.6678972623      -15.3618588333  MEMB      161             0.0000000000
     18556       161  SAPI      H2S           -28.4628848468       15.9869946422      -15.6951258394  MEMB      161             0.0000000000
     18557       161  SAPI      C3            -29.0926616666       19.1412813807      -19.4807451032  MEMB      161             0.0000000000
     18558       161  SAPI      HX            -29.0862607554       19.2939927989      -20.5811810578  MEMB      161             0.0000000000
     18559       161  SAPI      HY            -28.9050959728       20.1680464158      -19.1000961257  MEMB      161             0.0000000000
     18560       161  SAPI      O31           -30.3973498273       18.6993770311      -19.0718698514  MEMB      161             0.0000000000
     18561       161  SAPI      C31           -30.9562965954       19.1703027340      -17.9707974503  MEMB      161             0.0000000000
     18562       161  SAPI      O32           -30.4614822782       19.9798460837      -17.2357632075  MEMB      161             0.0000000000
     18563       161  SAPI      C32           -32.2937004150       18.4337330678      -17.9206311074  MEMB      161             0.0000000000
     18564       161  SAPI      H2X           -32.4234491375       17.5166980894      -18.5342539907  MEMB      161             0.0000000000
     18565       161  SAPI      H2Y           -33.0552063875       19.1279469825      -18.3359582658  MEMB      161             0.0000000000
     18566       161  SAPI      C23           -26.4566220541       16.2950740275      -14.7923716407  MEMB      161             0.0000000000
     18567       161  SAPI      H3R           -25.8115373184       17.1642546522      -14.5419480244  MEMB      161             0.0000000000
     18568       161  SAPI      H3S           -25.8017683377       15.6092099536      -15.3712311196  MEMB      161             0.0000000000
     18569       161  SAPI      C24           -26.9849482546       15.6189707339      -13.5514304610  MEMB      161             0.0000000000
     18570       161  SAPI      H4R           -27.4422682575       14.7037426280      -13.9844861293  MEMB      161             0.0000000000
     18571       161  SAPI      H4S           -27.8482572243       16.2038010382      -13.1680351164  MEMB      161             0.0000000000
     18572       161  SAPI      C25           -26.0549682987       15.3918146574      -12.4138705446  MEMB      161             0.0000000000
     18573       161  SAPI      H5R           -25.3530766623       14.5559611286      -12.5506074301  MEMB      161             0.0000000000
     18574       161  SAPI      C26           -26.0367992486       16.0930395351      -11.2259716926  MEMB      161             0.0000000000
     18575       161  SAPI      H6R           -25.3131121124       15.9263752293      -10.4144915939  MEMB      161             0.0000000000
     18576       161  SAPI      C27           -26.9641715514       17.2565077895      -10.8565859341  MEMB      161             0.0000000000
     18577       161  SAPI      H7R           -26.7564637191       17.4461202252       -9.7817720967  MEMB      161             0.0000000000
     18578       161  SAPI      H7S           -27.9815689331       16.8108076172      -10.8326007602  MEMB      161             0.0000000000
     18579       161  SAPI      C28           -26.8971794405       18.4809729931      -11.7282347021  MEMB      161             0.0000000000
     18580       161  SAPI      H8R           -26.1030319535       18.5793536252      -12.4829871797  MEMB      161             0.0000000000
     18581       161  SAPI      C29           -27.7981646178       19.4866687393      -11.6829016494  MEMB      161             0.0000000000
     18582       161  SAPI      H9R           -27.6009631345       20.3380936449      -12.3508738944  MEMB      161             0.0000000000
     18583       161  SAPI      C210          -29.0421698335       19.6851648760      -10.9176557630  MEMB      161             0.0000000000
     18584       161  SAPI      H10R          -29.3376133291       20.6865603725      -11.2974471871  MEMB      161             0.0000000000
     18585       161  SAPI      H10S          -28.8553109398       19.8525043942       -9.8353427570  MEMB      161             0.0000000000
     18586       161  SAPI      C211          -30.0280229974       18.5946363026      -11.1855668071  MEMB      161             0.0000000000
     18587       161  SAPI      H11R          -30.3191719363       18.4594413897      -12.2376862263  MEMB      161             0.0000000000
     18588       161  SAPI      C212          -30.6972403986       17.9653411568      -10.2091244943  MEMB      161             0.0000000000
     18589       161  SAPI      H12R          -31.3882653818       17.2158447467      -10.6223307383  MEMB      161             0.0000000000
     18590       161  SAPI      C213          -30.6143451477       18.1971157265       -8.7199531731  MEMB      161             0.0000000000
     18591       161  SAPI      H13R          -31.5432119684       17.7771451757       -8.2781932475  MEMB      161             0.0000000000
     18592       161  SAPI      H13S          -30.5979803590       19.2641533920       -8.4109493368  MEMB      161             0.0000000000
     18593       161  SAPI      C214          -29.4519460115       17.5745081805       -8.0198313375  MEMB      161             0.0000000000
     18594       161  SAPI      H14R          -28.6461915914       17.1857419616       -8.6598473856  MEMB      161             0.0000000000
     18595       161  SAPI      C215          -29.3453778148       17.5215562064       -6.6506733674  MEMB      161             0.0000000000
     18596       161  SAPI      H15R          -28.4190000165       17.1427808029       -6.1942163875  MEMB      161             0.0000000000
     18597       161  SAPI      C216          -30.3406503797       18.1308549912       -5.6984810669  MEMB      161             0.0000000000
     18598       161  SAPI      H16R          -30.9543986560       18.9020579280       -6.2112001561  MEMB      161             0.0000000000
     18599       161  SAPI      H16S          -29.8176476063       18.8536782329       -5.0364272342  MEMB      161             0.0000000000
     18600       161  SAPI      C217          -31.1152270855       17.1247739921       -4.9009454761  MEMB      161             0.0000000000
     18601       161  SAPI      H17R          -31.4903383096       16.3035836585       -5.5484476444  MEMB      161             0.0000000000
     18602       161  SAPI      H17S          -32.0368110572       17.6395682423       -4.5545485920  MEMB      161             0.0000000000
     18603       161  SAPI      C218          -30.2631309941       16.6203463063       -3.6889480723  MEMB      161             0.0000000000
     18604       161  SAPI      H18R          -29.7214352302       17.4987471583       -3.2774894306  MEMB      161             0.0000000000
     18605       161  SAPI      H18S          -29.5474776742       15.8421448536       -4.0303627269  MEMB      161             0.0000000000
     18606       161  SAPI      C219          -31.2449661358       16.0477428476       -2.6401822513  MEMB      161             0.0000000000
     18607       161  SAPI      H19R          -31.7421736802       15.1025300992       -2.9462518436  MEMB      161             0.0000000000
     18608       161  SAPI      H19S          -31.9948930726       16.8422608932       -2.4385108062  MEMB      161             0.0000000000
     18609       161  SAPI      C220          -30.5804823250       15.7584001134       -1.2516353237  MEMB      161             0.0000000000
     18610       161  SAPI      H20R          -29.9509161391       14.8444395862       -1.3030549751  MEMB      161             0.0000000000
     18611       161  SAPI      H20S          -31.2965581149       15.5633857136       -0.4248778755  MEMB      161             0.0000000000
     18612       161  SAPI      H20T          -29.9794227681       16.6220167147       -0.8949632295  MEMB      161             0.0000000000
     18613       161  SAPI      C33           -32.6184059386       18.1034079791      -16.4384489256  MEMB      161             0.0000000000
     18614       161  SAPI      H3X           -33.6408022663       17.6686747192      -16.4442679413  MEMB      161             0.0000000000
     18615       161  SAPI      H3Y           -32.5368399325       19.0044513479      -15.7936320617  MEMB      161             0.0000000000
     18616       161  SAPI      C34           -31.7772493139       16.9240309241      -15.8051047193  MEMB      161             0.0000000000
     18617       161  SAPI      H4X           -30.7112650939       17.2292677162      -15.7356145906  MEMB      161             0.0000000000
     18618       161  SAPI      H4Y           -31.8874690489       15.9763826870      -16.3744336850  MEMB      161             0.0000000000
     18619       161  SAPI      C35           -32.2993940746       16.6703442809      -14.3944474199  MEMB      161             0.0000000000
     18620       161  SAPI      H5X           -33.3972733051       16.5048207213      -14.4342474119  MEMB      161             0.0000000000
     18621       161  SAPI      H5Y           -32.0685224683       17.4943855401      -13.6859454543  MEMB      161             0.0000000000
     18622       161  SAPI      C36           -31.5400193407       15.4556209700      -13.6820651237  MEMB      161             0.0000000000
     18623       161  SAPI      H6X           -30.4620038614       15.6176097323      -13.4676744588  MEMB      161             0.0000000000
     18624       161  SAPI      H6Y           -31.7309706659       14.6156514593      -14.3837133075  MEMB      161             0.0000000000
     18625       161  SAPI      C37           -32.1249665015       15.0886660980      -12.3334290588  MEMB      161             0.0000000000
     18626       161  SAPI      H7X           -33.2019103553       15.3416697284      -12.2309504838  MEMB      161             0.0000000000
     18627       161  SAPI      H7Y           -31.6183449154       15.8059323566      -11.6528524129  MEMB      161             0.0000000000
     18628       161  SAPI      C38           -32.0503323432       13.5755549689      -11.8960375752  MEMB      161             0.0000000000
     18629       161  SAPI      H8X           -31.0117785195       13.1954290194      -12.0020152846  MEMB      161             0.0000000000
     18630       161  SAPI      H8Y           -32.6253895380       12.9773139048      -12.6347781385  MEMB      161             0.0000000000
     18631       161  SAPI      C39           -32.4404380187       13.3017805403      -10.4519415724  MEMB      161             0.0000000000
     18632       161  SAPI      H9X           -32.3091026225       12.2019202163      -10.3660382843  MEMB      161             0.0000000000
     18633       161  SAPI      H9Y           -33.5148417822       13.5621380473      -10.3415285877  MEMB      161             0.0000000000
     18634       161  SAPI      C310          -31.7954593863       14.1392989349       -9.3469689511  MEMB      161             0.0000000000
     18635       161  SAPI      H10X          -32.0218973710       13.7018966253       -8.3511143314  MEMB      161             0.0000000000
     18636       161  SAPI      H10Y          -32.2694747756       15.1358437579       -9.4755327054  MEMB      161             0.0000000000
     18637       161  SAPI      C311          -30.1971422482       14.4002521662       -9.3489498638  MEMB      161             0.0000000000
     18638       161  SAPI      H11X          -29.9796143589       14.9413264930       -8.4033064833  MEMB      161             0.0000000000
     18639       161  SAPI      H11Y          -29.9095333709       15.0236311428      -10.2224489032  MEMB      161             0.0000000000
     18640       161  SAPI      C312          -29.4031902480       13.1168163065       -9.2675650222  MEMB      161             0.0000000000
     18641       161  SAPI      H12X          -29.3973170450       12.6890456182      -10.2928938031  MEMB      161             0.0000000000
     18642       161  SAPI      H12Y          -29.8721329449       12.3294635104       -8.6394812498  MEMB      161             0.0000000000
     18643       161  SAPI      C313          -28.0212943910       13.2272302842       -8.5545672335  MEMB      161             0.0000000000
     18644       161  SAPI      H13X          -27.4386868868       13.8371705340       -9.2776592192  MEMB      161             0.0000000000
     18645       161  SAPI      H13Y          -27.5970842032       12.2015405380       -8.5063234249  MEMB      161             0.0000000000
     18646       161  SAPI      C314          -27.9942655857       13.8475452993       -7.1842081332  MEMB      161             0.0000000000
     18647       161  SAPI      H14X          -28.2806601845       14.9189602589       -7.2503069662  MEMB      161             0.0000000000
     18648       161  SAPI      H14Y          -27.0050150093       14.0410895602       -6.7170411893  MEMB      161             0.0000000000
     18649       161  SAPI      C315          -28.8639970890       13.1474160191       -6.1244628018  MEMB      161             0.0000000000
     18650       161  SAPI      H15X          -29.7787887313       13.0761629242       -6.7508813972  MEMB      161             0.0000000000
     18651       161  SAPI      H15Y          -29.1977787164       13.7810420287       -5.2750928997  MEMB      161             0.0000000000
     18652       161  SAPI      C316          -28.3283432110       11.8289340189       -5.6091207236  MEMB      161             0.0000000000
     18653       161  SAPI      H16X          -27.2311129987       11.7786007903       -5.4421667107  MEMB      161             0.0000000000
     18654       161  SAPI      H16Y          -28.6510251724       11.1282485614       -6.4086434436  MEMB      161             0.0000000000
     18655       161  SAPI      C317          -29.0124360713       11.3949001700       -4.2321834790  MEMB      161             0.0000000000
     18656       161  SAPI      H17X          -28.6842799449       10.3958837947       -3.8735717442  MEMB      161             0.0000000000
     18657       161  SAPI      H17Y          -30.1184307376       11.4962659572       -4.2608476791  MEMB      161             0.0000000000
     18658       161  SAPI      C318          -28.6712195322       12.2500470890       -2.9975857585  MEMB      161             0.0000000000
     18659       161  SAPI      H18X          -28.8586260973       13.2783557527       -3.3741230652  MEMB      161             0.0000000000
     18660       161  SAPI      H18Y          -27.6370274304       12.2829501437       -2.5930060511  MEMB      161             0.0000000000
     18661       161  SAPI      H18Z          -29.3892600697       11.9656855061       -2.1989125519  MEMB      161             0.0000000000
     18662       162  SOPE      N              31.0030324248       13.6930376762      -22.7994010451  MEMB      162             0.0000000000
     18663       162  SOPE      HN1            30.4838427091       13.4167215730      -21.9416764803  MEMB      162             0.0000000000
     18664       162  SOPE      HN2            30.3321927121       13.8301286481      -23.5822037080  MEMB      162             0.0000000000
     18665       162  SOPE      HN3            31.6341097431       12.9091524262      -23.0618231629  MEMB      162             0.0000000000
     18666       162  SOPE      C12            31.9282575321       14.8186100857      -22.5934475954  MEMB      162             0.0000000000
     18667       162  SOPE      H12A           32.2160806743       15.1759903253      -23.6052569841  MEMB      162             0.0000000000
     18668       162  SOPE      H12B           32.7809863261       14.3590782874      -22.0493839760  MEMB      162             0.0000000000
     18669       162  SOPE      C11            31.1338951087       15.9891449898      -21.9617372246  MEMB      162             0.0000000000
     18670       162  SOPE      H11A           30.2999234464       16.2535489685      -22.6465019246  MEMB      162             0.0000000000
     18671       162  SOPE      H11B           31.8142453093       16.8575586284      -22.0932761268  MEMB      162             0.0000000000
     18672       162  SOPE      P              29.3222447293       15.5836781919      -20.2127132143  MEMB      162             0.0000000000
     18673       162  SOPE      O13            28.6200536927       14.8446673640      -21.2607795259  MEMB      162             0.0000000000
     18674       162  SOPE      O14            28.7302888783       16.8211830765      -19.7516054482  MEMB      162             0.0000000000
     18675       162  SOPE      O12            30.8014458250       15.7952529490      -20.5652695181  MEMB      162             0.0000000000
     18676       162  SOPE      O11            29.4835282132       14.6691512665      -18.8550464285  MEMB      162             0.0000000000
     18677       162  SOPE      C1             30.6892066745       14.4150727265      -18.1506998875  MEMB      162             0.0000000000
     18678       162  SOPE      HA             31.4608348723       15.2099805203      -18.2345607369  MEMB      162             0.0000000000
     18679       162  SOPE      HB             31.1660716366       13.5023619948      -18.5676890548  MEMB      162             0.0000000000
     18680       162  SOPE      C2             30.4981093786       14.1009813599      -16.6038451928  MEMB      162             0.0000000000
     18681       162  SOPE      HS             30.4070312073       12.9941553855      -16.5728287648  MEMB      162             0.0000000000
     18682       162  SOPE      O21            29.3999627470       14.8663798574      -16.0643948832  MEMB      162             0.0000000000
     18683       162  SOPE      C21            28.6034964088       14.1388748041      -15.2522827382  MEMB      162             0.0000000000
     18684       162  SOPE      O22            28.7219506935       12.9710188855      -14.9431967188  MEMB      162             0.0000000000
     18685       162  SOPE      C22            27.5983713178       15.1332303085      -14.5373874380  MEMB      162             0.0000000000
     18686       162  SOPE      H2R            26.9211610639       15.5083256732      -15.3342629280  MEMB      162             0.0000000000
     18687       162  SOPE      H2S            28.1373851632       16.0078988615      -14.1146112741  MEMB      162             0.0000000000
     18688       162  SOPE      C3             31.7965681931       14.4856370140      -15.7534180435  MEMB      162             0.0000000000
     18689       162  SOPE      HX             32.0401207980       15.5565230092      -15.5854706193  MEMB      162             0.0000000000
     18690       162  SOPE      HY             32.6885621010       14.0670882334      -16.2667256729  MEMB      162             0.0000000000
     18691       162  SOPE      O31            31.6216348263       13.7249411866      -14.5468174263  MEMB      162             0.0000000000
     18692       162  SOPE      C31            31.8464840824       14.3899326642      -13.4248007578  MEMB      162             0.0000000000
     18693       162  SOPE      O32            32.3736953454       15.4939336530      -13.3622629279  MEMB      162             0.0000000000
     18694       162  SOPE      C32            31.3039271896       13.6285874069      -12.2193530541  MEMB      162             0.0000000000
     18695       162  SOPE      H2X            32.0411957012       12.8015722161      -12.1368788993  MEMB      162             0.0000000000
     18696       162  SOPE      H2Y            30.3174827123       13.1782787471      -12.4611597087  MEMB      162             0.0000000000
     18697       162  SOPE      C23            26.7992477484       14.3615613852      -13.5965716563  MEMB      162             0.0000000000
     18698       162  SOPE      H3R            26.3994478300       13.4248433071      -14.0404639180  MEMB      162             0.0000000000
     18699       162  SOPE      H3S            25.9206251120       14.9591398976      -13.2721594188  MEMB      162             0.0000000000
     18700       162  SOPE      C24            27.4095248462       13.9094721126      -12.2819340906  MEMB      162             0.0000000000
     18701       162  SOPE      H4R            28.0564165038       13.0066041469      -12.3080419316  MEMB      162             0.0000000000
     18702       162  SOPE      H4S            28.0340827979       14.7876803377      -12.0117510758  MEMB      162             0.0000000000
     18703       162  SOPE      C25            26.3215591845       13.8565818674      -11.2215318503  MEMB      162             0.0000000000
     18704       162  SOPE      H5R            25.7631520608       14.8166130369      -11.2505660296  MEMB      162             0.0000000000
     18705       162  SOPE      H5S            25.6032292633       13.0309526817      -11.4129988892  MEMB      162             0.0000000000
     18706       162  SOPE      C26            26.8329279985       13.6036599136       -9.8313088727  MEMB      162             0.0000000000
     18707       162  SOPE      H6R            27.4194870285       14.4800142293       -9.4816334134  MEMB      162             0.0000000000
     18708       162  SOPE      H6S            25.9541830404       13.3800132882       -9.1893502997  MEMB      162             0.0000000000
     18709       162  SOPE      C27            27.6852079656       12.3624582491       -9.6793436140  MEMB      162             0.0000000000
     18710       162  SOPE      H7R            27.0813728250       11.5045738881      -10.0450464226  MEMB      162             0.0000000000
     18711       162  SOPE      H7S            28.4827490754       12.4706663973      -10.4452027307  MEMB      162             0.0000000000
     18712       162  SOPE      C28            28.2256465673       12.0917725966       -8.2539514003  MEMB      162             0.0000000000
     18713       162  SOPE      H8R            27.4170316166       12.2616781324       -7.5112575266  MEMB      162             0.0000000000
     18714       162  SOPE      H8S            28.5474919593       11.0295677547       -8.2043730603  MEMB      162             0.0000000000
     18715       162  SOPE      C29            29.4719117895       12.9131232786       -7.9350083824  MEMB      162             0.0000000000
     18716       162  SOPE      H91            30.3290946346       12.6198388940       -8.5588839782  MEMB      162             0.0000000000
     18717       162  SOPE      C210           29.6121896057       13.6780800207       -6.7811875184  MEMB      162             0.0000000000
     18718       162  SOPE      H101           30.5513467209       14.2262750078       -6.6154584470  MEMB      162             0.0000000000
     18719       162  SOPE      C211           28.6287490381       13.8887813508       -5.5764434702  MEMB      162             0.0000000000
     18720       162  SOPE      H11R           27.6293927218       13.5410498605       -5.9151038972  MEMB      162             0.0000000000
     18721       162  SOPE      H11S           28.4952474353       14.9602571677       -5.3148376372  MEMB      162             0.0000000000
     18722       162  SOPE      C212           29.1259523181       13.1474616276       -4.3505575936  MEMB      162             0.0000000000
     18723       162  SOPE      H12R           29.1055236911       12.0534931373       -4.5432650471  MEMB      162             0.0000000000
     18724       162  SOPE      H12S           28.4691668576       13.2889822277       -3.4657259546  MEMB      162             0.0000000000
     18725       162  SOPE      C213           30.5607656564       13.5360523645       -3.8897047672  MEMB      162             0.0000000000
     18726       162  SOPE      H13R           31.2078264596       13.4396486308       -4.7876687542  MEMB      162             0.0000000000
     18727       162  SOPE      H13S           30.9100846704       12.8035613761       -3.1309207560  MEMB      162             0.0000000000
     18728       162  SOPE      C214           30.7013999487       14.9144344525       -3.2279386353  MEMB      162             0.0000000000
     18729       162  SOPE      H14R           30.0317778802       14.7152486351       -2.3640791813  MEMB      162             0.0000000000
     18730       162  SOPE      H14S           30.3590026372       15.7762705747       -3.8397594413  MEMB      162             0.0000000000
     18731       162  SOPE      C215           32.1183493283       15.2810425603       -2.6713704437  MEMB      162             0.0000000000
     18732       162  SOPE      H15R           32.8753106604       15.1131353524       -3.4670701329  MEMB      162             0.0000000000
     18733       162  SOPE      H15S           32.3811637971       14.5521794877       -1.8751236322  MEMB      162             0.0000000000
     18734       162  SOPE      C216           32.3249127845       16.7686424205       -2.1840292091  MEMB      162             0.0000000000
     18735       162  SOPE      H16R           32.2722995611       17.4901856681       -3.0271958152  MEMB      162             0.0000000000
     18736       162  SOPE      H16S           33.3688608017       16.7702309863       -1.8039086916  MEMB      162             0.0000000000
     18737       162  SOPE      C217           31.2333758085       17.0951535228       -1.0953700268  MEMB      162             0.0000000000
     18738       162  SOPE      H17R           30.2566844695       17.1005015525       -1.6248672404  MEMB      162             0.0000000000
     18739       162  SOPE      H17S           31.4457951379       18.1200717908       -0.7228910301  MEMB      162             0.0000000000
     18740       162  SOPE      C218           31.1994370136       16.1045062092        0.0738884286  MEMB      162             0.0000000000
     18741       162  SOPE      H18R           30.3743166920       16.4803248804        0.7159612926  MEMB      162             0.0000000000
     18742       162  SOPE      H18S           32.1701682616       16.0227542584        0.6080396929  MEMB      162             0.0000000000
     18743       162  SOPE      H18T           30.8630544461       15.0600956242       -0.1003955224  MEMB      162             0.0000000000
     18744       162  SOPE      C33            31.4243681366       14.4605039807      -11.0035602523  MEMB      162             0.0000000000
     18745       162  SOPE      H3X            30.6533440654       14.1593596508      -10.2625101429  MEMB      162             0.0000000000
     18746       162  SOPE      H3Y            31.1984520961       15.5427630328      -11.1130969542  MEMB      162             0.0000000000
     18747       162  SOPE      C34            32.8002646621       14.4274707058      -10.4008299263  MEMB      162             0.0000000000
     18748       162  SOPE      H4X            33.5349409165       14.8610855568      -11.1125531014  MEMB      162             0.0000000000
     18749       162  SOPE      H4Y            33.0692202614       13.3834083330      -10.1326561685  MEMB      162             0.0000000000
     18750       162  SOPE      C35            32.9155504543       15.3487216370       -9.1190439084  MEMB      162             0.0000000000
     18751       162  SOPE      H5X            33.9180705143       14.9765954617       -8.8177184080  MEMB      162             0.0000000000
     18752       162  SOPE      H5Y            32.2167487607       14.9246478278       -8.3666085386  MEMB      162             0.0000000000
     18753       162  SOPE      C36            32.8182582679       16.8761787522       -9.3367128716  MEMB      162             0.0000000000
     18754       162  SOPE      H6X            31.7843094468       16.9800714945       -9.7297485867  MEMB      162             0.0000000000
     18755       162  SOPE      H6Y            33.3692191437       17.1389523580      -10.2649972425  MEMB      162             0.0000000000
     18756       162  SOPE      C37            32.9623244907       17.6808635403       -8.0615073102  MEMB      162             0.0000000000
     18757       162  SOPE      H7X            32.8988854929       18.7742681586       -8.2479549438  MEMB      162             0.0000000000
     18758       162  SOPE      H7Y            33.9631105050       17.4799720625       -7.6228824432  MEMB      162             0.0000000000
     18759       162  SOPE      C38            31.8910861674       17.3296854293       -6.9740832885  MEMB      162             0.0000000000
     18760       162  SOPE      H8X            32.1801629532       17.8878256881       -6.0579849710  MEMB      162             0.0000000000
     18761       162  SOPE      H8Y            32.0228008784       16.2714379357       -6.6624991768  MEMB      162             0.0000000000
     18762       162  SOPE      C39            30.3656169167       17.4853192125       -7.3372847691  MEMB      162             0.0000000000
     18763       162  SOPE      H9X            29.7688212590       16.9685104541       -6.5555782216  MEMB      162             0.0000000000
     18764       162  SOPE      H9Y            30.2184717105       16.8182699106       -8.2134780842  MEMB      162             0.0000000000
     18765       162  SOPE      C310           29.8658363870       18.8752213708       -7.5626509906  MEMB      162             0.0000000000
     18766       162  SOPE      H10X           28.8285255794       18.6361110451       -7.8806661457  MEMB      162             0.0000000000
     18767       162  SOPE      H10Y           30.4419128196       19.3239980317       -8.3999429590  MEMB      162             0.0000000000
     18768       162  SOPE      C311           29.7601019113       19.7021240922       -6.2610155835  MEMB      162             0.0000000000
     18769       162  SOPE      H11X           29.7243256963       20.7656472080       -6.5803263301  MEMB      162             0.0000000000
     18770       162  SOPE      H11Y           30.6408805988       19.5970780221       -5.5920499444  MEMB      162             0.0000000000
     18771       162  SOPE      C312           28.4492541433       19.5619711226       -5.4999745515  MEMB      162             0.0000000000
     18772       162  SOPE      H12X           28.2811019893       18.4776979150       -5.3256252918  MEMB      162             0.0000000000
     18773       162  SOPE      H12Y           27.6540778655       19.9333574231       -6.1812143565  MEMB      162             0.0000000000
     18774       162  SOPE      C313           28.4089773602       20.4445170160       -4.1874596055  MEMB      162             0.0000000000
     18775       162  SOPE      H13X           28.3316821477       21.4877838883       -4.5615457263  MEMB      162             0.0000000000
     18776       162  SOPE      H13Y           29.3608508354       20.2603604059       -3.6449246813  MEMB      162             0.0000000000
     18777       162  SOPE      C314           27.2161977488       20.3632154381       -3.2377528128  MEMB      162             0.0000000000
     18778       162  SOPE      H14X           26.2741316038       20.3888859068       -3.8261192311  MEMB      162             0.0000000000
     18779       162  SOPE      H14Y           27.1506883829       21.2966874098       -2.6388712895  MEMB      162             0.0000000000
     18780       162  SOPE      C315           27.1802167634       19.1394584095       -2.2063915911  MEMB      162             0.0000000000
     18781       162  SOPE      H15X           26.3717754168       19.3830899802       -1.4843200563  MEMB      162             0.0000000000
     18782       162  SOPE      H15Y           28.1845210853       19.0329225672       -1.7434183182  MEMB      162             0.0000000000
     18783       162  SOPE      C316           26.8494953097       17.7741926235       -2.8340301749  MEMB      162             0.0000000000
     18784       162  SOPE      H16X           27.7141534465       17.2834668945       -3.3298886784  MEMB      162             0.0000000000
     18785       162  SOPE      H16Y           25.9734777771       17.9245080226       -3.5006037458  MEMB      162             0.0000000000
     18786       162  SOPE      C317           26.2850972626       16.7440723044       -1.8550513029  MEMB      162             0.0000000000
     18787       162  SOPE      H17X           25.3819319883       17.1493882884       -1.3507380932  MEMB      162             0.0000000000
     18788       162  SOPE      H17Y           27.0105554868       16.6769246937       -1.0162887800  MEMB      162             0.0000000000
     18789       162  SOPE      C318           25.9128046254       15.3940413725       -2.4943454860  MEMB      162             0.0000000000
     18790       162  SOPE      H18X           25.1745996522       15.6867025853       -3.2713427879  MEMB      162             0.0000000000
     18791       162  SOPE      H18Y           25.4038023931       14.8539164232       -1.6676046510  MEMB      162             0.0000000000
     18792       162  SOPE      H18Z           26.7193946077       14.8380014745       -3.0183246418  MEMB      162             0.0000000000
     18793       163  SAPC      N              30.5006810210      -15.6462747453      -19.2572995458  MEMB      163             0.0000000000
     18794       163  SAPC      C12            31.1055585570      -16.8166666156      -18.5476510158  MEMB      163             0.0000000000
     18795       163  SAPC      H12A           31.0187240278      -16.6314290832      -17.4872044477  MEMB      163             0.0000000000
     18796       163  SAPC      H12B           32.1606318184      -16.9317363696      -18.7475996827  MEMB      163             0.0000000000
     18797       163  SAPC      C13            31.2771460143      -14.4139196967      -18.7493894788  MEMB      163             0.0000000000
     18798       163  SAPC      H13A           31.0690997759      -14.3457821824      -17.6918101745  MEMB      163             0.0000000000
     18799       163  SAPC      H13B           32.3170021921      -14.6698555433      -18.8893760070  MEMB      163             0.0000000000
     18800       163  SAPC      H13C           30.9541558045      -13.4367355341      -19.0767851140  MEMB      163             0.0000000000
     18801       163  SAPC      C14            30.7134967296      -15.6777902477      -20.7393882082  MEMB      163             0.0000000000
     18802       163  SAPC      H14A           30.4500758456      -16.6419158240      -21.1486205508  MEMB      163             0.0000000000
     18803       163  SAPC      H14B           30.1190663725      -14.9217009955      -21.2306942781  MEMB      163             0.0000000000
     18804       163  SAPC      H14C           31.7573574568      -15.5406900227      -20.9801335319  MEMB      163             0.0000000000
     18805       163  SAPC      C15            29.0277066697      -15.4935120294      -18.9199950065  MEMB      163             0.0000000000
     18806       163  SAPC      H15A           28.6127859421      -14.5549934053      -19.2567794197  MEMB      163             0.0000000000
     18807       163  SAPC      H15B           28.3429019309      -16.2493555824      -19.2751610599  MEMB      163             0.0000000000
     18808       163  SAPC      H15C           28.9981191147      -15.4309449377      -17.8422148682  MEMB      163             0.0000000000
     18809       163  SAPC      C11            30.3956325480      -18.2000713793      -18.9540863389  MEMB      163             0.0000000000
     18810       163  SAPC      H11A           29.3099700568      -18.2142994449      -18.7185965752  MEMB      163             0.0000000000
     18811       163  SAPC      H11B           30.9052337334      -18.9508190271      -18.3129891844  MEMB      163             0.0000000000
     18812       163  SAPC      P              30.6454885836      -19.8408921955      -21.0521345021  MEMB      163             0.0000000000
     18813       163  SAPC      O13            29.2579478248      -20.3201051572      -20.9954177350  MEMB      163             0.0000000000
     18814       163  SAPC      O14            31.3570635756      -19.6773860540      -22.3366895384  MEMB      163             0.0000000000
     18815       163  SAPC      O12            30.5937037708      -18.4468608867      -20.3880809639  MEMB      163             0.0000000000
     18816       163  SAPC      O11            31.4171540037      -20.8758322327      -20.0598676933  MEMB      163             0.0000000000
     18817       163  SAPC      C1             32.7907747433      -21.1664666996      -20.2412644906  MEMB      163             0.0000000000
     18818       163  SAPC      HA             33.1087734821      -21.4643802781      -21.2632455019  MEMB      163             0.0000000000
     18819       163  SAPC      HB             33.2356605613      -20.1616089049      -20.0779905124  MEMB      163             0.0000000000
     18820       163  SAPC      C2             33.3013376102      -22.0043281816      -19.1392352652  MEMB      163             0.0000000000
     18821       163  SAPC      HS             32.8915280272      -23.0281280587      -19.2741832722  MEMB      163             0.0000000000
     18822       163  SAPC      O21            32.8304128287      -21.5694698167      -17.8124021311  MEMB      163             0.0000000000
     18823       163  SAPC      C21            31.5846970358      -21.7337486451      -17.2620739449  MEMB      163             0.0000000000
     18824       163  SAPC      O22            30.6158923719      -22.1011252706      -17.8508207733  MEMB      163             0.0000000000
     18825       163  SAPC      C22            31.5843941222      -21.3238870965      -15.7206632957  MEMB      163             0.0000000000
     18826       163  SAPC      H2R            32.6381957006      -21.5488790697      -15.4501045217  MEMB      163             0.0000000000
     18827       163  SAPC      H2S            31.3516171818      -20.2375573188      -15.7254915681  MEMB      163             0.0000000000
     18828       163  SAPC      C3             34.8435310634      -21.9987546988      -19.0481004758  MEMB      163             0.0000000000
     18829       163  SAPC      HX             35.1430268401      -22.5388633085      -19.9716296263  MEMB      163             0.0000000000
     18830       163  SAPC      HY             35.2439060639      -22.5539406808      -18.1730065536  MEMB      163             0.0000000000
     18831       163  SAPC      O31            35.2873047171      -20.6342385900      -18.9335975006  MEMB      163             0.0000000000
     18832       163  SAPC      C31            35.4712809882      -20.1606880355      -17.7184313672  MEMB      163             0.0000000000
     18833       163  SAPC      O32            35.3161416593      -20.7804664247      -16.6676746418  MEMB      163             0.0000000000
     18834       163  SAPC      C32            35.7043526137      -18.6186062792      -17.8270292352  MEMB      163             0.0000000000
     18835       163  SAPC      H2X            34.9719057785      -18.0892628485      -18.4732784782  MEMB      163             0.0000000000
     18836       163  SAPC      H2Y            36.7861594416      -18.4729487153      -18.0339094176  MEMB      163             0.0000000000
     18837       163  SAPC      C23            30.4838319327      -21.9045611210      -14.7875433349  MEMB      163             0.0000000000
     18838       163  SAPC      H3R            30.7807270928      -21.8665745275      -13.7176225755  MEMB      163             0.0000000000
     18839       163  SAPC      H3S            30.5008616692      -22.9738030270      -15.0887951357  MEMB      163             0.0000000000
     18840       163  SAPC      C24            29.0499614519      -21.2859454305      -14.8538340424  MEMB      163             0.0000000000
     18841       163  SAPC      H4R            28.7895051701      -21.3219167213      -15.9332736606  MEMB      163             0.0000000000
     18842       163  SAPC      H4S            29.1678322357      -20.2531399839      -14.4617367302  MEMB      163             0.0000000000
     18843       163  SAPC      C25            28.0352520572      -22.0269382559      -14.0930710401  MEMB      163             0.0000000000
     18844       163  SAPC      H5R            27.9082547677      -23.0272511237      -14.5326683882  MEMB      163             0.0000000000
     18845       163  SAPC      C26            27.5772502723      -21.7199435186      -12.8476852168  MEMB      163             0.0000000000
     18846       163  SAPC      H6R            26.8176082033      -22.4100857857      -12.4518979741  MEMB      163             0.0000000000
     18847       163  SAPC      C27            27.9493468339      -20.5051579979      -11.9934621950  MEMB      163             0.0000000000
     18848       163  SAPC      H7R            27.4697676602      -20.5507594740      -10.9923404964  MEMB      163             0.0000000000
     18849       163  SAPC      H7S            27.6850095500      -19.6321021858      -12.6276709145  MEMB      163             0.0000000000
     18850       163  SAPC      C28            29.3664343954      -20.2730848065      -11.6151133243  MEMB      163             0.0000000000
     18851       163  SAPC      H8R            30.1269916320      -21.0075335182      -11.9186555340  MEMB      163             0.0000000000
     18852       163  SAPC      C29            29.7754004292      -19.1865087099      -10.9329149507  MEMB      163             0.0000000000
     18853       163  SAPC      H9R            30.8393014758      -19.1218745477      -10.6610017389  MEMB      163             0.0000000000
     18854       163  SAPC      C210           28.8834162804      -18.0863165767      -10.3853235600  MEMB      163             0.0000000000
     18855       163  SAPC      H10R           27.9441628417      -18.6179616631      -10.1217371301  MEMB      163             0.0000000000
     18856       163  SAPC      H10S           28.6454140137      -17.4109669394      -11.2347818462  MEMB      163             0.0000000000
     18857       163  SAPC      C211           29.2549887798      -17.1699636447       -9.1996845517  MEMB      163             0.0000000000
     18858       163  SAPC      H11R           29.7981311105      -16.2282583257       -9.3675752415  MEMB      163             0.0000000000
     18859       163  SAPC      C212           29.2077643876      -17.4975197138       -7.8997464594  MEMB      163             0.0000000000
     18860       163  SAPC      H12R           29.5441829206      -16.8063125570       -7.1129459498  MEMB      163             0.0000000000
     18861       163  SAPC      C213           28.6891628566      -18.8565983278       -7.4322748241  MEMB      163             0.0000000000
     18862       163  SAPC      H13R           28.6241825742      -19.6043905581       -8.2513629400  MEMB      163             0.0000000000
     18863       163  SAPC      H13S           27.6646877674      -18.8566644572       -7.0024243527  MEMB      163             0.0000000000
     18864       163  SAPC      C214           29.5794376896      -19.4311505722       -6.3358567638  MEMB      163             0.0000000000
     18865       163  SAPC      H14R           30.1515188451      -20.3062466722       -6.6778071698  MEMB      163             0.0000000000
     18866       163  SAPC      C215           29.5485014236      -19.1283333217       -5.0290952916  MEMB      163             0.0000000000
     18867       163  SAPC      H15R           30.2160012323      -19.8253523953       -4.5012608404  MEMB      163             0.0000000000
     18868       163  SAPC      C216           28.6322066574      -18.1715992112       -4.2428987258  MEMB      163             0.0000000000
     18869       163  SAPC      H16R           27.7713940617      -17.8605986897       -4.8726617961  MEMB      163             0.0000000000
     18870       163  SAPC      H16S           29.2377982912      -17.3211260613       -3.8630626613  MEMB      163             0.0000000000
     18871       163  SAPC      C217           27.9988091395      -18.7784601515       -3.0159348870  MEMB      163             0.0000000000
     18872       163  SAPC      H17R           27.2045832148      -19.4916143149       -3.3240538602  MEMB      163             0.0000000000
     18873       163  SAPC      H17S           27.5638234867      -17.8834946166       -2.5218241895  MEMB      163             0.0000000000
     18874       163  SAPC      C218           29.0286377618      -19.4461046278       -2.0823975938  MEMB      163             0.0000000000
     18875       163  SAPC      H18R           29.8481884126      -18.7388610883       -1.8324694618  MEMB      163             0.0000000000
     18876       163  SAPC      H18S           29.3660430744      -20.3587008590       -2.6187256636  MEMB      163             0.0000000000
     18877       163  SAPC      C219           28.5169596384      -19.6930704713       -0.7165891228  MEMB      163             0.0000000000
     18878       163  SAPC      H19R           28.2098123216      -18.6952381331       -0.3367046365  MEMB      163             0.0000000000
     18879       163  SAPC      H19S           29.2886724203      -20.0116293526        0.0164182569  MEMB      163             0.0000000000
     18880       163  SAPC      C220           27.3353983753      -20.5897817608       -0.5235489051  MEMB      163             0.0000000000
     18881       163  SAPC      H20R           26.5209854474      -20.2950491116       -1.2193818581  MEMB      163             0.0000000000
     18882       163  SAPC      H20S           26.8551032371      -20.5824539551        0.4782420443  MEMB      163             0.0000000000
     18883       163  SAPC      H20T           27.5454877915      -21.6460958775       -0.7962828549  MEMB      163             0.0000000000
     18884       163  SAPC      C33            35.3945882970      -17.9174230789      -16.4313117150  MEMB      163             0.0000000000
     18885       163  SAPC      H3X            35.8592230274      -16.9084731885      -16.4099748804  MEMB      163             0.0000000000
     18886       163  SAPC      H3Y            36.0153674834      -18.4756026889      -15.6982430490  MEMB      163             0.0000000000
     18887       163  SAPC      C34            33.8932912566      -17.8720981697      -16.0563757505  MEMB      163             0.0000000000
     18888       163  SAPC      H4X            33.3240104261      -18.7639415532      -16.3952791133  MEMB      163             0.0000000000
     18889       163  SAPC      H4Y            33.4543980268      -16.9941122656      -16.5767930298  MEMB      163             0.0000000000
     18890       163  SAPC      C35            33.6366239208      -17.7721567162      -14.5532929547  MEMB      163             0.0000000000
     18891       163  SAPC      H5X            34.0374382181      -18.6608600328      -14.0204939040  MEMB      163             0.0000000000
     18892       163  SAPC      H5Y            32.5280067504      -17.8070770438      -14.4894986209  MEMB      163             0.0000000000
     18893       163  SAPC      C36            34.1330036355      -16.5234261354      -13.8481036786  MEMB      163             0.0000000000
     18894       163  SAPC      H6X            33.6398806035      -15.6381548114      -14.3035658371  MEMB      163             0.0000000000
     18895       163  SAPC      H6Y            35.2243775218      -16.4053975359      -14.0192560347  MEMB      163             0.0000000000
     18896       163  SAPC      C37            33.6883083136      -16.4629777699      -12.3306237169  MEMB      163             0.0000000000
     18897       163  SAPC      H7X            32.5789129854      -16.4354014214      -12.2776844182  MEMB      163             0.0000000000
     18898       163  SAPC      H7Y            34.1501814072      -15.5731425651      -11.8518882567  MEMB      163             0.0000000000
     18899       163  SAPC      C38            34.1194879649      -17.6927657723      -11.4957769900  MEMB      163             0.0000000000
     18900       163  SAPC      H8X            35.2190206419      -17.8488301840      -11.5272868728  MEMB      163             0.0000000000
     18901       163  SAPC      H8Y            33.7028431661      -18.6271004479      -11.9290749866  MEMB      163             0.0000000000
     18902       163  SAPC      C39            33.6341245817      -17.5037219503      -10.0938884088  MEMB      163             0.0000000000
     18903       163  SAPC      H9X            32.5414052765      -17.3264546981      -10.1880234521  MEMB      163             0.0000000000
     18904       163  SAPC      H9Y            34.0472339811      -16.6096841598       -9.5797303187  MEMB      163             0.0000000000
     18905       163  SAPC      C310           33.7643577029      -18.6797484996       -9.1220397947  MEMB      163             0.0000000000
     18906       163  SAPC      H10X           34.8589342550      -18.7583362262       -8.9486988359  MEMB      163             0.0000000000
     18907       163  SAPC      H10Y           33.4648590984      -19.6532183579       -9.5658619328  MEMB      163             0.0000000000
     18908       163  SAPC      C311           33.1355499125      -18.3588504880       -7.7626464025  MEMB      163             0.0000000000
     18909       163  SAPC      H11X           32.0503486915      -18.1209713026       -7.7711874761  MEMB      163             0.0000000000
     18910       163  SAPC      H11Y           33.5988597793      -17.4150298848       -7.4036650053  MEMB      163             0.0000000000
     18911       163  SAPC      C312           33.3389424687      -19.4909313083       -6.6425533386  MEMB      163             0.0000000000
     18912       163  SAPC      H12X           34.3776850762      -19.7777086934       -6.9129112740  MEMB      163             0.0000000000
     18913       163  SAPC      H12Y           32.6827899775      -20.3774412954       -6.7762882429  MEMB      163             0.0000000000
     18914       163  SAPC      C313           33.2610327256      -18.9635904222       -5.2398365778  MEMB      163             0.0000000000
     18915       163  SAPC      H13X           32.2624563202      -18.4767028790       -5.2295102009  MEMB      163             0.0000000000
     18916       163  SAPC      H13Y           34.0931257528      -18.2388547404       -5.1106060630  MEMB      163             0.0000000000
     18917       163  SAPC      C314           33.3514939082      -20.2113459869       -4.2856872375  MEMB      163             0.0000000000
     18918       163  SAPC      H14X           34.4334821764      -20.4272905973       -4.4160343624  MEMB      163             0.0000000000
     18919       163  SAPC      H14Y           32.7775420052      -21.1118664577       -4.5922220808  MEMB      163             0.0000000000
     18920       163  SAPC      C315           32.8611105369      -19.9826667184       -2.8706532892  MEMB      163             0.0000000000
     18921       163  SAPC      H15X           31.8166533200      -19.6049045346       -2.8975902681  MEMB      163             0.0000000000
     18922       163  SAPC      H15Y           33.5167702639      -19.2203737082       -2.3980639136  MEMB      163             0.0000000000
     18923       163  SAPC      C316           32.7785396107      -21.0929309201       -1.8546913632  MEMB      163             0.0000000000
     18924       163  SAPC      H16X           32.1903886081      -20.7708620636       -0.9688736041  MEMB      163             0.0000000000
     18925       163  SAPC      H16Y           33.7765138187      -21.3653728682       -1.4495428348  MEMB      163             0.0000000000
     18926       163  SAPC      C317           32.1961803515      -22.5139744374       -2.2840900283  MEMB      163             0.0000000000
     18927       163  SAPC      H17X           32.8080202362      -22.8959774762       -3.1291041811  MEMB      163             0.0000000000
     18928       163  SAPC      H17Y           31.1369792069      -22.3735239029       -2.5885381849  MEMB      163             0.0000000000
     18929       163  SAPC      C318           32.2813228847      -23.4527203692       -1.0913273777  MEMB      163             0.0000000000
     18930       163  SAPC      H18X           33.2868855355      -23.5032694330       -0.6216365708  MEMB      163             0.0000000000
     18931       163  SAPC      H18Y           32.0176379607      -24.4463743238       -1.5125662312  MEMB      163             0.0000000000
     18932       163  SAPC      H18Z           31.5336612168      -23.1380952799       -0.3321595688  MEMB      163             0.0000000000
     18933       164  CHL1      C3             -3.1899702166       33.1483353802      -17.3389400000  MEMB      164             0.0000000000
     18934       164  CHL1      H3             -2.4351226460       32.3404590019      -17.2301100000  MEMB      164             0.0000000000
     18935       164  CHL1      O3             -3.2995397311       33.5638864105      -18.6610600000  MEMB      164             0.0000000000
     18936       164  CHL1      H3'            -3.1164842051       32.8349337352      -19.2583200000  MEMB      164             0.0000000000
     18937       164  CHL1      C4             -4.5081694276       32.6237173814      -16.8859600000  MEMB      164             0.0000000000
     18938       164  CHL1      H4A            -5.2977795789       33.2918558784      -17.2914600000  MEMB      164             0.0000000000
     18939       164  CHL1      H4B            -4.6419489006       31.6805360479      -17.4576500000  MEMB      164             0.0000000000
     18940       164  CHL1      C5             -4.5590967181       32.5311293564      -15.3505600000  MEMB      164             0.0000000000
     18941       164  CHL1      C6             -4.7960701034       31.3548194683      -14.7234200000  MEMB      164             0.0000000000
     18942       164  CHL1      H6             -4.8390673306       30.4092777431      -15.2838600000  MEMB      164             0.0000000000
     18943       164  CHL1      C7             -4.8619867356       31.1454954363      -13.2483700000  MEMB      164             0.0000000000
     18944       164  CHL1      H7A            -5.6439975221       30.4207496156      -12.9360800000  MEMB      164             0.0000000000
     18945       164  CHL1      H7B            -3.8410515707       30.8961956607      -12.8880200000  MEMB      164             0.0000000000
     18946       164  CHL1      C8             -5.1621709549       32.4604632089      -12.4742500000  MEMB      164             0.0000000000
     18947       164  CHL1      H8             -6.2172677655       32.7552361475      -12.6591600000  MEMB      164             0.0000000000
     18948       164  CHL1      C14            -4.8171925397       32.2865582933      -11.0029300000  MEMB      164             0.0000000000
     18949       164  CHL1      H14            -3.7527577953       32.0080319788      -10.8489200000  MEMB      164             0.0000000000
     18950       164  CHL1      C15            -5.5154317043       31.1667619236      -10.2658200000  MEMB      164             0.0000000000
     18951       164  CHL1      H15A           -6.5030563959       30.8847154723      -10.6893500000  MEMB      164             0.0000000000
     18952       164  CHL1      H15B           -4.8871188997       30.2693615782      -10.4507800000  MEMB      164             0.0000000000
     18953       164  CHL1      C16            -5.5099592250       31.6304019034       -8.8242900000  MEMB      164             0.0000000000
     18954       164  CHL1      H16A           -6.5810779810       31.8283910837       -8.6056200000  MEMB      164             0.0000000000
     18955       164  CHL1      H16B           -5.0719764051       30.8819557087       -8.1298000000  MEMB      164             0.0000000000
     18956       164  CHL1      C17            -4.7520515899       32.9322704910       -8.7281500000  MEMB      164             0.0000000000
     18957       164  CHL1      H17            -3.6569373200       32.7496573347       -8.6869800000  MEMB      164             0.0000000000
     18958       164  CHL1      C13            -4.9764290636       33.5164716733      -10.1259900000  MEMB      164             0.0000000000
     18959       164  CHL1      C18            -6.3979747399       34.1569402905      -10.2642900000  MEMB      164             0.0000000000
     18960       164  CHL1      H18A           -6.5469925694       34.9599527608       -9.5111100000  MEMB      164             0.0000000000
     18961       164  CHL1      H18B           -6.6589845422       34.4921347298      -11.2908600000  MEMB      164             0.0000000000
     18962       164  CHL1      H18C           -7.2191946023       33.4257847846      -10.1051400000  MEMB      164             0.0000000000
     18963       164  CHL1      C12            -3.8253455874       34.3933497194      -10.6309100000  MEMB      164             0.0000000000
     18964       164  CHL1      H12A           -3.7214341463       35.3631685747      -10.0989700000  MEMB      164             0.0000000000
     18965       164  CHL1      H12B           -2.8657425290       33.8470503558      -10.5083100000  MEMB      164             0.0000000000
     18966       164  CHL1      C11            -4.0439514823       34.8080123003      -12.1541000000  MEMB      164             0.0000000000
     18967       164  CHL1      H11A           -4.9252138206       35.4723638967      -12.2819200000  MEMB      164             0.0000000000
     18968       164  CHL1      H11B           -3.1794959404       35.4564173403      -12.4121900000  MEMB      164             0.0000000000
     18969       164  CHL1      C9             -4.1771966648       33.5955263807      -13.0718300000  MEMB      164             0.0000000000
     18970       164  CHL1      H9             -3.1691082126       33.1432651939      -12.9554700000  MEMB      164             0.0000000000
     18971       164  CHL1      C10            -4.2603780640       33.8739578676      -14.5829800000  MEMB      164             0.0000000000
     18972       164  CHL1      C19            -5.4294726525       34.8196935699      -14.8879200000  MEMB      164             0.0000000000
     18973       164  CHL1      H19A           -5.1928706260       35.8427553451      -14.5250500000  MEMB      164             0.0000000000
     18974       164  CHL1      H19B           -5.6434766988       35.0340969987      -15.9568300000  MEMB      164             0.0000000000
     18975       164  CHL1      H19C           -6.3872101793       34.5049795524      -14.4209900000  MEMB      164             0.0000000000
     18976       164  CHL1      C1             -2.8744277643       34.4662201425      -15.0341700000  MEMB      164             0.0000000000
     18977       164  CHL1      H1A            -2.9364381605       35.5350003646      -14.7372100000  MEMB      164             0.0000000000
     18978       164  CHL1      H1B            -1.9792843440       33.9232956788      -14.6623300000  MEMB      164             0.0000000000
     18979       164  CHL1      C2             -2.6656521436       34.3988789945      -16.5340500000  MEMB      164             0.0000000000
     18980       164  CHL1      H2A            -1.6067017757       34.5246514144      -16.8456900000  MEMB      164             0.0000000000
     18981       164  CHL1      H2B            -3.2699736454       35.2299426172      -16.9564900000  MEMB      164             0.0000000000
     18982       164  CHL1      C20            -5.1489877068       33.7070620056       -7.3474400000  MEMB      164             0.0000000000
     18983       164  CHL1      H20            -6.2525013696       33.8355649282       -7.3544900000  MEMB      164             0.0000000000
     18984       164  CHL1      C21            -4.4298790886       35.0344253081       -7.2574200000  MEMB      164             0.0000000000
     18985       164  CHL1      H21A           -3.3515896516       34.9922497262       -6.9931800000  MEMB      164             0.0000000000
     18986       164  CHL1      H21B           -4.8275338192       35.6531757878       -6.4247400000  MEMB      164             0.0000000000
     18987       164  CHL1      H21C           -4.6325711793       35.6364637734       -8.1689000000  MEMB      164             0.0000000000
     18988       164  CHL1      C22            -4.6918870351       32.8448178041       -6.1739700000  MEMB      164             0.0000000000
     18989       164  CHL1      H22A           -5.2648102115       31.8929380733       -6.1738900000  MEMB      164             0.0000000000
     18990       164  CHL1      H22B           -3.6231683611       32.6198281718       -6.3777900000  MEMB      164             0.0000000000
     18991       164  CHL1      C23            -4.7778593672       33.5345002022       -4.7835800000  MEMB      164             0.0000000000
     18992       164  CHL1      H23A           -4.1106056372       34.4093759748       -4.6297200000  MEMB      164             0.0000000000
     18993       164  CHL1      H23B           -5.8366645692       33.7382399032       -4.5157200000  MEMB      164             0.0000000000
     18994       164  CHL1      C24            -4.2896638263       32.5576455547       -3.6844300000  MEMB      164             0.0000000000
     18995       164  CHL1      H24A           -5.0595727077       31.7639860519       -3.5764400000  MEMB      164             0.0000000000
     18996       164  CHL1      H24B           -3.3436616090       32.0960781852       -4.0399000000  MEMB      164             0.0000000000
     18997       164  CHL1      C25            -3.9959960761       33.1739987964       -2.3035300000  MEMB      164             0.0000000000
     18998       164  CHL1      H25            -3.1419400952       33.8799910131       -2.3840800000  MEMB      164             0.0000000000
     18999       164  CHL1      C26            -5.1066336000       34.1706524924       -1.8429600000  MEMB      164             0.0000000000
     19000       164  CHL1      H26A           -4.8710829421       34.7729117327       -0.9395600000  MEMB      164             0.0000000000
     19001       164  CHL1      H26B           -5.1729669605       34.9979994770       -2.5814900000  MEMB      164             0.0000000000
     19002       164  CHL1      H26C           -6.1245466271       33.7262738655       -1.8167000000  MEMB      164             0.0000000000
     19003       164  CHL1      C27            -3.8887480779       32.1056971826       -1.2490400000  MEMB      164             0.0000000000
     19004       164  CHL1      H27A           -4.8446681954       31.5581202434       -1.1051800000  MEMB      164             0.0000000000
     19005       164  CHL1      H27B           -3.1352842095       31.2982695448       -1.3702600000  MEMB      164             0.0000000000
     19006       164  CHL1      H27C           -3.5855601031       32.5576025354       -0.2804400000  MEMB      164             0.0000000000
     19007       165  SAPE      N               5.0797487200      -35.5059167440      -18.0236838844  MEMB      165             0.0000000000
     19008       165  SAPE      HN1             6.0852927427      -35.7655862233      -17.9684269660  MEMB      165             0.0000000000
     19009       165  SAPE      HN2             5.0391800008      -34.4685110306      -18.0848673279  MEMB      165             0.0000000000
     19010       165  SAPE      HN3             4.4965588508      -35.7254849577      -17.1910499428  MEMB      165             0.0000000000
     19011       165  SAPE      C12             4.5923924300      -36.0604367026      -19.3272707307  MEMB      165             0.0000000000
     19012       165  SAPE      H12A            3.8245056186      -36.8418306018      -19.1426245602  MEMB      165             0.0000000000
     19013       165  SAPE      H12B            5.3997333552      -36.4444513976      -19.9868573668  MEMB      165             0.0000000000
     19014       165  SAPE      C11             3.8939286883      -34.9649546595      -20.2134734996  MEMB      165             0.0000000000
     19015       165  SAPE      H11A            3.8002083624      -35.3860904609      -21.2372811488  MEMB      165             0.0000000000
     19016       165  SAPE      H11B            4.5969769450      -34.1064584666      -20.2685050222  MEMB      165             0.0000000000
     19017       165  SAPE      P               1.6490378177      -33.5452817133      -20.5634320705  MEMB      165             0.0000000000
     19018       165  SAPE      O13             1.9190647405      -33.7672349889      -21.9937623988  MEMB      165             0.0000000000
     19019       165  SAPE      O14             0.2135890526      -33.5414008562      -20.0615335060  MEMB      165             0.0000000000
     19020       165  SAPE      O12             2.4874622441      -34.6131663553      -19.7230166224  MEMB      165             0.0000000000
     19021       165  SAPE      O11             2.2959699083      -32.1184706234      -20.0938272645  MEMB      165             0.0000000000
     19022       165  SAPE      C1              2.6066804758      -31.9060122343      -18.7355340273  MEMB      165             0.0000000000
     19023       165  SAPE      HA              1.8338673470      -32.3430599763      -18.0676493170  MEMB      165             0.0000000000
     19024       165  SAPE      HB              3.6087043408      -32.3163449876      -18.4867443379  MEMB      165             0.0000000000
     19025       165  SAPE      C2              2.3831561352      -30.4184049543      -18.3397964131  MEMB      165             0.0000000000
     19026       165  SAPE      HS              3.2073208287      -29.8470181958      -18.8179079740  MEMB      165             0.0000000000
     19027       165  SAPE      O21             2.6185668230      -30.3989042116      -16.9273316722  MEMB      165             0.0000000000
     19028       165  SAPE      C21             2.8084563058      -29.1855221291      -16.3200543390  MEMB      165             0.0000000000
     19029       165  SAPE      O22             2.5642849448      -28.1170678613      -16.8270132452  MEMB      165             0.0000000000
     19030       165  SAPE      C22             3.3109996651      -29.3873000106      -14.8860902690  MEMB      165             0.0000000000
     19031       165  SAPE      H2R             4.2595060637      -29.9650726439      -14.8571880875  MEMB      165             0.0000000000
     19032       165  SAPE      H2S             3.6182274207      -28.4375853766      -14.3982639457  MEMB      165             0.0000000000
     19033       165  SAPE      C3              0.9705354220      -29.7562317771      -18.6935530323  MEMB      165             0.0000000000
     19034       165  SAPE      HX              0.9571673069      -29.6438247867      -19.7987709836  MEMB      165             0.0000000000
     19035       165  SAPE      HY              0.9339733525      -28.7371167190      -18.2526574579  MEMB      165             0.0000000000
     19036       165  SAPE      O31            -0.1364730859      -30.5432831803      -18.2341677413  MEMB      165             0.0000000000
     19037       165  SAPE      C31            -0.5876563227      -30.4788591682      -16.9932436065  MEMB      165             0.0000000000
     19038       165  SAPE      O32            -0.3132461706      -29.6445892832      -16.1693883644  MEMB      165             0.0000000000
     19039       165  SAPE      C32            -1.5847057550      -31.7334235583      -16.7950486176  MEMB      165             0.0000000000
     19040       165  SAPE      H2X            -2.1885192796      -31.9921322704      -17.6910398887  MEMB      165             0.0000000000
     19041       165  SAPE      H2Y            -2.2215598283      -31.4077727638      -15.9449371941  MEMB      165             0.0000000000
     19042       165  SAPE      C23             2.2737216450      -30.0361941974      -13.9847410980  MEMB      165             0.0000000000
     19043       165  SAPE      H3R             1.8808709194      -30.9608376456      -14.4591079688  MEMB      165             0.0000000000
     19044       165  SAPE      H3S             1.4366001977      -29.3466737979      -13.7436803946  MEMB      165             0.0000000000
     19045       165  SAPE      C24             2.7717970884      -30.6639456620      -12.5864495177  MEMB      165             0.0000000000
     19046       165  SAPE      H4R             3.4459153987      -31.5390414510      -12.7051633707  MEMB      165             0.0000000000
     19047       165  SAPE      H4S             1.8934047960      -31.1663432930      -12.1278163071  MEMB      165             0.0000000000
     19048       165  SAPE      C25             3.2806651946      -29.5889724146      -11.6244725185  MEMB      165             0.0000000000
     19049       165  SAPE      H5R             4.1907437580      -29.0520140869      -11.9301403126  MEMB      165             0.0000000000
     19050       165  SAPE      C26             2.8547769815      -29.3499286279      -10.4061057238  MEMB      165             0.0000000000
     19051       165  SAPE      H6R             3.4742672048      -28.6748068758       -9.7974659796  MEMB      165             0.0000000000
     19052       165  SAPE      C27             1.7937143439      -30.0663510864       -9.6223099213  MEMB      165             0.0000000000
     19053       165  SAPE      H7R             2.0478701703      -29.7847279233       -8.5780810120  MEMB      165             0.0000000000
     19054       165  SAPE      H7S             2.1046506770      -31.1290854162       -9.7130585578  MEMB      165             0.0000000000
     19055       165  SAPE      C28             0.2869003536      -29.9260600419       -9.8977155564  MEMB      165             0.0000000000
     19056       165  SAPE      H8R            -0.0496177517      -29.8478628701      -10.9420536250  MEMB      165             0.0000000000
     19057       165  SAPE      C29            -0.6398014021      -29.7637642012       -8.9800095295  MEMB      165             0.0000000000
     19058       165  SAPE      H9R            -1.6955016101      -29.6986717779       -9.2821025697  MEMB      165             0.0000000000
     19059       165  SAPE      C210           -0.4397610803      -29.6057349945       -7.4862954860  MEMB      165             0.0000000000
     19060       165  SAPE      H10R           -0.9091188053      -28.7036560094       -7.0387720968  MEMB      165             0.0000000000
     19061       165  SAPE      H10S            0.5914836331      -29.4816813005       -7.0920038114  MEMB      165             0.0000000000
     19062       165  SAPE      C211           -1.0661019917      -30.9079750217       -6.8524771039  MEMB      165             0.0000000000
     19063       165  SAPE      H11R           -1.0301418584      -31.7313803876       -7.5809751956  MEMB      165             0.0000000000
     19064       165  SAPE      C212           -1.6437659961      -30.9266551545       -5.6510865845  MEMB      165             0.0000000000
     19065       165  SAPE      H12R           -2.1116570075      -31.8746169831       -5.3470371234  MEMB      165             0.0000000000
     19066       165  SAPE      C213           -1.7975911394      -29.7206630341       -4.7598147224  MEMB      165             0.0000000000
     19067       165  SAPE      H13R           -2.6740001424      -29.8689008546       -4.0932904248  MEMB      165             0.0000000000
     19068       165  SAPE      H13S           -2.2077734369      -28.8193208755       -5.2634552623  MEMB      165             0.0000000000
     19069       165  SAPE      C214           -0.5153424545      -29.3212592969       -3.9844282063  MEMB      165             0.0000000000
     19070       165  SAPE      H14R           -0.2548010197      -28.2552073732       -4.0596035381  MEMB      165             0.0000000000
     19071       165  SAPE      C215            0.1483540185      -30.0428521501       -3.1413677425  MEMB      165             0.0000000000
     19072       165  SAPE      H15R            0.9295181445      -29.5721062967       -2.5264025623  MEMB      165             0.0000000000
     19073       165  SAPE      C216           -0.1279420945      -31.4747466075       -2.7091551405  MEMB      165             0.0000000000
     19074       165  SAPE      H16R            0.4859480184      -32.2131595276       -3.2679108570  MEMB      165             0.0000000000
     19075       165  SAPE      H16S           -1.2058740980      -31.6861767858       -2.8755317093  MEMB      165             0.0000000000
     19076       165  SAPE      C217            0.2520387669      -31.6768412682       -1.2463624614  MEMB      165             0.0000000000
     19077       165  SAPE      H17R           -0.3624465135      -30.9644371404       -0.6554225231  MEMB      165             0.0000000000
     19078       165  SAPE      H17S            1.3462965427      -31.5692818290       -1.0871378533  MEMB      165             0.0000000000
     19079       165  SAPE      C218           -0.1318783025      -33.1709072204       -0.7998869877  MEMB      165             0.0000000000
     19080       165  SAPE      H18R            0.4543918996      -33.9800446913       -1.2855881249  MEMB      165             0.0000000000
     19081       165  SAPE      H18S           -1.1730591749      -33.3997264536       -1.1127865153  MEMB      165             0.0000000000
     19082       165  SAPE      C219           -0.0184060282      -33.2135777938        0.7058135857  MEMB      165             0.0000000000
     19083       165  SAPE      H19R           -0.6413614018      -34.0171373516        1.1536316146  MEMB      165             0.0000000000
     19084       165  SAPE      H19S           -0.4781463658      -32.2728526545        1.0772925333  MEMB      165             0.0000000000
     19085       165  SAPE      C220            1.4109732628      -33.2849482374        1.3512702976  MEMB      165             0.0000000000
     19086       165  SAPE      H20R            1.2876152109      -33.2433420506        2.4546156300  MEMB      165             0.0000000000
     19087       165  SAPE      H20S            2.1997633489      -32.5470706635        1.0911397703  MEMB      165             0.0000000000
     19088       165  SAPE      H20T            1.9063932045      -34.2482588251        1.1044622156  MEMB      165             0.0000000000
     19089       165  SAPE      C33            -0.7433791717      -32.9674360589      -16.4136066013  MEMB      165             0.0000000000
     19090       165  SAPE      H3X             0.2657758926      -32.9955246722      -16.8774366693  MEMB      165             0.0000000000
     19091       165  SAPE      H3Y            -1.3658011526      -33.8067791632      -16.7909859241  MEMB      165             0.0000000000
     19092       165  SAPE      C34            -0.4975950678      -33.3329309010      -14.8931923198  MEMB      165             0.0000000000
     19093       165  SAPE      H4X             0.2166304778      -32.6326090918      -14.4097127629  MEMB      165             0.0000000000
     19094       165  SAPE      H4Y            -0.0794412161      -34.3612603271      -14.9379892021  MEMB      165             0.0000000000
     19095       165  SAPE      C35            -1.7755963709      -33.3890590843      -14.0963248729  MEMB      165             0.0000000000
     19096       165  SAPE      H5X            -2.5460663832      -33.9535523838      -14.6638138876  MEMB      165             0.0000000000
     19097       165  SAPE      H5Y            -2.2291447247      -32.4002243878      -13.8708898644  MEMB      165             0.0000000000
     19098       165  SAPE      C36            -1.7063524014      -34.2718499126      -12.8192189122  MEMB      165             0.0000000000
     19099       165  SAPE      H6X            -1.4094481661      -35.3089431020      -13.0849373457  MEMB      165             0.0000000000
     19100       165  SAPE      H6Y            -2.7477831669      -34.2530229543      -12.4327107100  MEMB      165             0.0000000000
     19101       165  SAPE      C37            -0.6822377199      -33.7948498868      -11.7149951648  MEMB      165             0.0000000000
     19102       165  SAPE      H7X            -0.9381058720      -32.7538792436      -11.4230495095  MEMB      165             0.0000000000
     19103       165  SAPE      H7Y             0.3434709364      -33.6824618111      -12.1268341051  MEMB      165             0.0000000000
     19104       165  SAPE      C38            -0.7191216061      -34.7053319445      -10.3920035105  MEMB      165             0.0000000000
     19105       165  SAPE      H8X            -0.2795902448      -35.7021030494      -10.6101328512  MEMB      165             0.0000000000
     19106       165  SAPE      H8Y            -1.7432294571      -34.8428315763       -9.9838137780  MEMB      165             0.0000000000
     19107       165  SAPE      C39             0.2263226976      -34.1461297425       -9.3057688799  MEMB      165             0.0000000000
     19108       165  SAPE      H9X            -0.0625352447      -33.0946709337       -9.0928910274  MEMB      165             0.0000000000
     19109       165  SAPE      H9Y             1.2590058587      -34.1002478708       -9.7129310550  MEMB      165             0.0000000000
     19110       165  SAPE      C310            0.1086398340      -34.9434509853       -8.0433076080  MEMB      165             0.0000000000
     19111       165  SAPE      H10X            0.1567374106      -36.0205086022       -8.3115514601  MEMB      165             0.0000000000
     19112       165  SAPE      H10Y           -0.8400583905      -34.7253942921       -7.5078234640  MEMB      165             0.0000000000
     19113       165  SAPE      C311            1.2492653816      -34.7368183748       -6.9595551871  MEMB      165             0.0000000000
     19114       165  SAPE      H11X            2.2180682895      -35.2626951804       -7.0981030816  MEMB      165             0.0000000000
     19115       165  SAPE      H11Y            0.8980913066      -35.2038314102       -6.0146224885  MEMB      165             0.0000000000
     19116       165  SAPE      C312            1.5455310411      -33.2584293911       -6.7434770034  MEMB      165             0.0000000000
     19117       165  SAPE      H12X            0.6445114005      -32.6706727507       -6.4659399658  MEMB      165             0.0000000000
     19118       165  SAPE      H12Y            1.7847550380      -32.6953537562       -7.6708604314  MEMB      165             0.0000000000
     19119       165  SAPE      C313            2.6504543914      -33.0663322477       -5.6884606352  MEMB      165             0.0000000000
     19120       165  SAPE      H13X            3.5430664397      -33.6490392113       -6.0015387236  MEMB      165             0.0000000000
     19121       165  SAPE      H13Y            2.2685462926      -33.4386005634       -4.7138411075  MEMB      165             0.0000000000
     19122       165  SAPE      C314            3.0564384714      -31.5866420527       -5.6958211772  MEMB      165             0.0000000000
     19123       165  SAPE      H14X            2.2941362550      -30.9059540926       -5.2600691649  MEMB      165             0.0000000000
     19124       165  SAPE      H14Y            3.2127414060      -31.2572389488       -6.7452892627  MEMB      165             0.0000000000
     19125       165  SAPE      C315            4.3867565226      -31.2245528299       -5.0302217888  MEMB      165             0.0000000000
     19126       165  SAPE      H15X            5.2380067285      -31.4528899937       -5.7066513179  MEMB      165             0.0000000000
     19127       165  SAPE      H15Y            4.3870241399      -31.8338227724       -4.1011838982  MEMB      165             0.0000000000
     19128       165  SAPE      C316            4.5187409121      -29.7282210289       -4.6369192445  MEMB      165             0.0000000000
     19129       165  SAPE      H16X            3.7168315914      -29.5668452189       -3.8851079865  MEMB      165             0.0000000000
     19130       165  SAPE      H16Y            4.5125914025      -28.9937042279       -5.4704475315  MEMB      165             0.0000000000
     19131       165  SAPE      C317            5.7434320898      -29.5075420944       -3.7562649022  MEMB      165             0.0000000000
     19132       165  SAPE      H17X            6.6453226922      -29.6591634846       -4.3870779881  MEMB      165             0.0000000000
     19133       165  SAPE      H17Y            5.7591882303      -30.1245450497       -2.8324785526  MEMB      165             0.0000000000
     19134       165  SAPE      C318            5.8561243952      -28.0535049591       -3.2566715219  MEMB      165             0.0000000000
     19135       165  SAPE      H18X            4.9168687970      -27.9614042151       -2.6704669841  MEMB      165             0.0000000000
     19136       165  SAPE      H18Y            5.7913537350      -27.2183362188       -3.9864800297  MEMB      165             0.0000000000
     19137       165  SAPE      H18Z            6.5932193477      -27.8086355638       -2.4622849572  MEMB      165             0.0000000000
     19138       166  OSM       N              16.4590389052       29.0179983794      -21.7801137367  MEMB      166             0.0000000000
     19139       166  OSM       C15            16.1767537486       28.9047992488      -20.2706900674  MEMB      166             0.0000000000
     19140       166  OSM       H15A           16.4439436514       29.8509854797      -19.8237658435  MEMB      166             0.0000000000
     19141       166  OSM       H15B           16.7357668147       28.2028456187      -19.6697197373  MEMB      166             0.0000000000
     19142       166  OSM       H15C           15.1650331756       28.5556461536      -20.1260752538  MEMB      166             0.0000000000
     19143       166  OSM       C14            17.9139836656       29.0786499237      -21.8337827866  MEMB      166             0.0000000000
     19144       166  OSM       H14A           18.3443101434       28.2047774714      -21.3673427421  MEMB      166             0.0000000000
     19145       166  OSM       H14B           18.2712195171       30.0260275768      -21.4579397082  MEMB      166             0.0000000000
     19146       166  OSM       H14C           18.1825776605       29.1320995571      -22.8784839799  MEMB      166             0.0000000000
     19147       166  OSM       C13            15.9355631114       27.8383621273      -22.4739492215  MEMB      166             0.0000000000
     19148       166  OSM       H13A           14.8599561119       27.7982551696      -22.5626127134  MEMB      166             0.0000000000
     19149       166  OSM       H13B           16.4997185613       27.0270226646      -22.0382234529  MEMB      166             0.0000000000
     19150       166  OSM       H13C           16.3536556926       27.8666888079      -23.4693365788  MEMB      166             0.0000000000
     19151       166  OSM       C12            15.7990380522       30.2574057501      -22.3035959407  MEMB      166             0.0000000000
     19152       166  OSM       H12A           14.7527029043       30.0653705827      -22.4898895592  MEMB      166             0.0000000000
     19153       166  OSM       H12B           16.2686652239       30.5842029206      -23.2195947845  MEMB      166             0.0000000000
     19154       166  OSM       C11            15.8931857095       31.4814950224      -21.3882065631  MEMB      166             0.0000000000
     19155       166  OSM       H11A           15.3680396900       31.1547367706      -20.4652917607  MEMB      166             0.0000000000
     19156       166  OSM       H11B           15.3197509347       32.2684401288      -21.9231934139  MEMB      166             0.0000000000
     19157       166  OSM       P              17.3516593137       33.0905052796      -20.1912047686  MEMB      166             0.0000000000
     19158       166  OSM       O13            18.7716662512       33.6194163913      -20.2489000692  MEMB      166             0.0000000000
     19159       166  OSM       O14            16.3366214027       34.1054526713      -20.6136498303  MEMB      166             0.0000000000
     19160       166  OSM       O11            16.9127643249       32.4767749153      -18.7768905376  MEMB      166             0.0000000000
     19161       166  OSM       O12            17.2359601159       31.8758257867      -21.1190164780  MEMB      166             0.0000000000
     19162       166  OSM       C1S            17.2290303991       33.2216815049      -17.6213297953  MEMB      166             0.0000000000
     19163       166  OSM       H1S            16.5553177357       34.1050992486      -17.6189956013  MEMB      166             0.0000000000
     19164       166  OSM       H1T            18.2835592940       33.5643484624      -17.5515505813  MEMB      166             0.0000000000
     19165       166  OSM       NF             16.7928172795       33.2587924623      -15.2308279683  MEMB      166             0.0000000000
     19166       166  OSM       HNF            17.4446097644       33.2527411084      -14.4764151817  MEMB      166             0.0000000000
     19167       166  OSM       C2S            16.9878715533       32.3568957797      -16.3365428292  MEMB      166             0.0000000000
     19168       166  OSM       H2S            16.0842944442       31.7310386817      -16.4983219200  MEMB      166             0.0000000000
     19169       166  OSM       C3S            18.1409881969       31.4547333830      -16.0983756914  MEMB      166             0.0000000000
     19170       166  OSM       H3S            18.8896511825       32.2286304848      -15.8246822813  MEMB      166             0.0000000000
     19171       166  OSM       O3             18.4329632117       30.5796684791      -17.2217279814  MEMB      166             0.0000000000
     19172       166  OSM       HO3            17.8213582784       30.8510232006      -17.9101361432  MEMB      166             0.0000000000
     19173       166  OSM       C4S            17.8022389621       30.6501046454      -14.9113529288  MEMB      166             0.0000000000
     19174       166  OSM       H4S            16.8011513939       30.1944024862      -14.9239725939  MEMB      166             0.0000000000
     19175       166  OSM       C5S            18.5662486907       30.6435476291      -13.7569672225  MEMB      166             0.0000000000
     19176       166  OSM       H5S            19.5107909820       31.2073204268      -13.7569354360  MEMB      166             0.0000000000
     19177       166  OSM       C6S            18.0775890366       29.8681604488      -12.6069990456  MEMB      166             0.0000000000
     19178       166  OSM       H6S            18.8243490389       29.1455105660      -12.2140008992  MEMB      166             0.0000000000
     19179       166  OSM       H6T            17.1350618987       29.3303548237      -12.8451767234  MEMB      166             0.0000000000
     19180       166  OSM       C7S            17.6015191443       30.6867909690      -11.3095771708  MEMB      166             0.0000000000
     19181       166  OSM       H7S            17.5189429099       30.0783694254      -10.3836588932  MEMB      166             0.0000000000
     19182       166  OSM       H7T            16.6233711552       31.1383312239      -11.5809789850  MEMB      166             0.0000000000
     19183       166  OSM       C8S            18.5865634069       31.8271909487      -11.0223855800  MEMB      166             0.0000000000
     19184       166  OSM       H8S            18.6347023868       32.4883658568      -11.9139296353  MEMB      166             0.0000000000
     19185       166  OSM       H8T            19.6130895279       31.4064318338      -10.9629931538  MEMB      166             0.0000000000
     19186       166  OSM       C9S            18.1953874132       32.5731324155       -9.7705507185  MEMB      166             0.0000000000
     19187       166  OSM       H9S            17.1736659700       33.0091252740       -9.7883395193  MEMB      166             0.0000000000
     19188       166  OSM       H9T            18.8572522942       33.4652158396       -9.7916014942  MEMB      166             0.0000000000
     19189       166  OSM       C10S           18.5471144152       31.7392348517       -8.4995720770  MEMB      166             0.0000000000
     19190       166  OSM       H10S           19.4244806691       31.0864995433       -8.6957518398  MEMB      166             0.0000000000
     19191       166  OSM       H10T           17.7479505898       30.9689819499       -8.4509006888  MEMB      166             0.0000000000
     19192       166  OSM       C11S           18.5992725665       32.6892875245       -7.2609177745  MEMB      166             0.0000000000
     19193       166  OSM       H11S           17.7030498874       33.3451100318       -7.2292552310  MEMB      166             0.0000000000
     19194       166  OSM       H11T           19.3744211838       33.4806557718       -7.3457793084  MEMB      166             0.0000000000
     19195       166  OSM       C12S           18.7453080774       31.9255946204       -5.9511512455  MEMB      166             0.0000000000
     19196       166  OSM       H12S           19.1420766549       32.6294826275       -5.1886308612  MEMB      166             0.0000000000
     19197       166  OSM       H12T           19.4984227905       31.1237664398       -6.1067507201  MEMB      166             0.0000000000
     19198       166  OSM       C13S           17.4522039801       31.1087658527       -5.5891045262  MEMB      166             0.0000000000
     19199       166  OSM       H13S           17.0446101340       30.5378206755       -6.4506213467  MEMB      166             0.0000000000
     19200       166  OSM       H13T           16.6483328276       31.8285671697       -5.3245321315  MEMB      166             0.0000000000
     19201       166  OSM       C14S           17.6798792072       30.3921487137       -4.3076655044  MEMB      166             0.0000000000
     19202       166  OSM       H14S           18.2950244178       31.0803950328       -3.6894148598  MEMB      166             0.0000000000
     19203       166  OSM       H14T           18.3550011817       29.5227704966       -4.4583738789  MEMB      166             0.0000000000
     19204       166  OSM       C15S           16.3466646735       30.0131769131       -3.5884334652  MEMB      166             0.0000000000
     19205       166  OSM       H15S           15.7956969055       30.9684055240       -3.4531777934  MEMB      166             0.0000000000
     19206       166  OSM       H15T           16.6064116404       29.6920978787       -2.5570454932  MEMB      166             0.0000000000
     19207       166  OSM       C16S           15.5060943783       28.7730516359       -4.0769607271  MEMB      166             0.0000000000
     19208       166  OSM       H16S           16.0489594464       27.8067196332       -4.0006593695  MEMB      166             0.0000000000
     19209       166  OSM       H16T           15.1712459276       28.8777968579       -5.1311083128  MEMB      166             0.0000000000
     19210       166  OSM       C17S           14.0591981556       28.5716064245       -3.4264170428  MEMB      166             0.0000000000
     19211       166  OSM       H17S           13.8644356269       27.4779275415       -3.4423800929  MEMB      166             0.0000000000
     19212       166  OSM       H17T           13.2715026539       28.9386500401       -4.1186123606  MEMB      166             0.0000000000
     19213       166  OSM       C18S           13.7357875628       29.2778355059       -2.0970179848  MEMB      166             0.0000000000
     19214       166  OSM       H18S           14.2032038038       30.2854703472       -2.0743201772  MEMB      166             0.0000000000
     19215       166  OSM       H18T           14.2641334059       28.6803938734       -1.3235612542  MEMB      166             0.0000000000
     19216       166  OSM       H18U           12.6456187079       29.2848519385       -1.8829981639  MEMB      166             0.0000000000
     19217       166  OSM       C1F            15.8136707163       34.2347358284      -15.1216705086  MEMB      166             0.0000000000
     19218       166  OSM       OF             14.8755589730       34.3543808084      -15.8768834306  MEMB      166             0.0000000000
     19219       166  OSM       C2F            16.0008576930       35.2121936506      -13.9811807307  MEMB      166             0.0000000000
     19220       166  OSM       H2F            15.0335840149       35.2608724401      -13.4368162670  MEMB      166             0.0000000000
     19221       166  OSM       H2G            16.1540515690       36.2673740115      -14.2933460711  MEMB      166             0.0000000000
     19222       166  OSM       C3F            17.1325027660       34.7508265906      -13.0115483498  MEMB      166             0.0000000000
     19223       166  OSM       H3F            18.0852483454       34.5445525902      -13.5445097804  MEMB      166             0.0000000000
     19224       166  OSM       H3G            16.8866179814       33.7974171902      -12.4968912537  MEMB      166             0.0000000000
     19225       166  OSM       C4F            17.4633100776       35.7978058740      -11.9183065881  MEMB      166             0.0000000000
     19226       166  OSM       H4F            17.7520802769       36.6842532891      -12.5225779488  MEMB      166             0.0000000000
     19227       166  OSM       H4G            18.2804781807       35.3441781517      -11.3176572133  MEMB      166             0.0000000000
     19228       166  OSM       C5F            16.3534658992       36.2791240501      -10.9803323736  MEMB      166             0.0000000000
     19229       166  OSM       H5F            15.5010378011       36.4581564997      -11.6699950023  MEMB      166             0.0000000000
     19230       166  OSM       H5G            16.6858821291       37.3019168767      -10.7015578432  MEMB      166             0.0000000000
     19231       166  OSM       C6F            15.8692096512       35.5917806634       -9.7690667120  MEMB      166             0.0000000000
     19232       166  OSM       H6F            16.7373030801       35.1332301793       -9.2490023032  MEMB      166             0.0000000000
     19233       166  OSM       H6G            15.1876957158       34.7771731999      -10.0950638249  MEMB      166             0.0000000000
     19234       166  OSM       C7F            14.9954686437       36.4406081197       -8.7985295446  MEMB      166             0.0000000000
     19235       166  OSM       H7F            14.2161445845       37.0905619561       -9.2507843151  MEMB      166             0.0000000000
     19236       166  OSM       H7G            15.6926166122       37.1543525145       -8.3097814246  MEMB      166             0.0000000000
     19237       166  OSM       C8F            14.1566776018       35.6049912872       -7.8124063459  MEMB      166             0.0000000000
     19238       166  OSM       H8F            13.3523459254       35.0590165161       -8.3502570958  MEMB      166             0.0000000000
     19239       166  OSM       H8G            13.6504814359       36.2818451062       -7.0913276263  MEMB      166             0.0000000000
     19240       166  OSM       C9F            14.8572385214       34.5180673890       -7.0127024137  MEMB      166             0.0000000000
     19241       166  OSM       H9F            15.4723761920       33.8795395045       -7.6637691663  MEMB      166             0.0000000000
     19242       166  OSM       C10F           14.8027807705       34.2828404368       -5.7282790989  MEMB      166             0.0000000000
     19243       166  OSM       H10F           15.4242657268       33.4860065275       -5.2937535640  MEMB      166             0.0000000000
     19244       166  OSM       C11F           13.9944019096       35.0546744260       -4.7946358537  MEMB      166             0.0000000000
     19245       166  OSM       H11F           13.5550087040       34.2695506434       -4.1428418869  MEMB      166             0.0000000000
     19246       166  OSM       H11G           13.1477062651       35.5584553428       -5.3080871469  MEMB      166             0.0000000000
     19247       166  OSM       C12F           14.8460726296       35.8175599421       -3.7670821158  MEMB      166             0.0000000000
     19248       166  OSM       H12F           14.2027232052       36.4654000740       -3.1340546043  MEMB      166             0.0000000000
     19249       166  OSM       H12G           15.5189458804       36.5465118383       -4.2672744999  MEMB      166             0.0000000000
     19250       166  OSM       C13F           15.5762153481       35.0181278750       -2.6722808041  MEMB      166             0.0000000000
     19251       166  OSM       H13F           16.5246206071       34.5742091945       -3.0434735695  MEMB      166             0.0000000000
     19252       166  OSM       H13G           14.8366852754       34.2743703048       -2.3058911126  MEMB      166             0.0000000000
     19253       166  OSM       C14F           15.8630942531       35.6282369831       -1.2906220378  MEMB      166             0.0000000000
     19254       166  OSM       H14F           14.9693504001       36.2401280096       -1.0433709462  MEMB      166             0.0000000000
     19255       166  OSM       H14G           16.7182701543       36.3230210158       -1.4329960926  MEMB      166             0.0000000000
     19256       166  OSM       C15F           16.2723970272       34.6570496264       -0.2267749142  MEMB      166             0.0000000000
     19257       166  OSM       H15F           15.9181085655       33.6380778357       -0.4922866977  MEMB      166             0.0000000000
     19258       166  OSM       H15G           15.6814376664       34.9278576735        0.6741983971  MEMB      166             0.0000000000
     19259       166  OSM       C16F           17.8017323586       34.6222589025        0.0435492342  MEMB      166             0.0000000000
     19260       166  OSM       H16F           18.3513397131       35.0051858046       -0.8428014782  MEMB      166             0.0000000000
     19261       166  OSM       H16G           18.0503650770       33.5399717779        0.0775652207  MEMB      166             0.0000000000
     19262       166  OSM       C17F           18.2933196314       35.1642522424        1.3597627749  MEMB      166             0.0000000000
     19263       166  OSM       H17F           17.6215106408       36.0191681389        1.5880442469  MEMB      166             0.0000000000
     19264       166  OSM       H17G           19.3396137525       35.5297310615        1.2822107883  MEMB      166             0.0000000000
     19265       166  OSM       C18F           18.1440129690       34.1264807426        2.4823742039  MEMB      166             0.0000000000
     19266       166  OSM       H18F           18.5735591549       33.1330888247        2.2314092995  MEMB      166             0.0000000000
     19267       166  OSM       H18G           17.0763422029       33.9413928291        2.7276145604  MEMB      166             0.0000000000
     19268       166  OSM       H18H           18.6283036040       34.5217978715        3.4008016078  MEMB      166             0.0000000000
     19269       167  CHL1      C3            -16.9174693567      -31.3785266884      -17.3992250000  MEMB      167             0.0000000000
     19270       167  CHL1      H3            -17.7868776163      -30.7037299463      -17.5512650000  MEMB      167             0.0000000000
     19271       167  CHL1      O3            -16.1889892433      -31.5086317116      -18.6007750000  MEMB      167             0.0000000000
     19272       167  CHL1      H3'           -15.9833603846      -30.6330889826      -18.9365350000  MEMB      167             0.0000000000
     19273       167  CHL1      C4            -15.9764534519      -30.7327072153      -16.3918550000  MEMB      167             0.0000000000
     19274       167  CHL1      H4A           -15.0966607593      -31.4099821726      -16.3519750000  MEMB      167             0.0000000000
     19275       167  CHL1      H4B           -15.7004444478      -29.7273480343      -16.7757650000  MEMB      167             0.0000000000
     19276       167  CHL1      C5            -16.4086414547      -30.6836789359      -14.9524750000  MEMB      167             0.0000000000
     19277       167  CHL1      C6            -16.4451152331      -29.5392837784      -14.2712450000  MEMB      167             0.0000000000
     19278       167  CHL1      H6            -15.9267719659      -28.6949280775      -14.7491350000  MEMB      167             0.0000000000
     19279       167  CHL1      C7            -16.9159386467      -29.3334290205      -12.8833050000  MEMB      167             0.0000000000
     19280       167  CHL1      H7A           -16.2570492332      -28.6184337377      -12.3457550000  MEMB      167             0.0000000000
     19281       167  CHL1      H7B           -17.9677954254      -28.9769877722      -12.8538850000  MEMB      167             0.0000000000
     19282       167  CHL1      C8            -16.9718239514      -30.7055001723      -12.1053750000  MEMB      167             0.0000000000
     19283       167  CHL1      H8            -15.9418699079      -31.0769477391      -11.9168450000  MEMB      167             0.0000000000
     19284       167  CHL1      C14           -17.6626812757      -30.5038559490      -10.7397550000  MEMB      167             0.0000000000
     19285       167  CHL1      H14           -18.6849801927      -30.0894687102      -10.8721350000  MEMB      167             0.0000000000
     19286       167  CHL1      C15           -16.8943604643      -29.5483868688       -9.8919150000  MEMB      167             0.0000000000
     19287       167  CHL1      H15A          -15.7928843079      -29.6902576060       -9.8610650000  MEMB      167             0.0000000000
     19288       167  CHL1      H15B          -17.1861355355      -28.5146736955      -10.1758350000  MEMB      167             0.0000000000
     19289       167  CHL1      C16           -17.4663820541      -29.7743557384       -8.3754950000  MEMB      167             0.0000000000
     19290       167  CHL1      H16A          -16.5749320372      -29.8606462265       -7.7180850000  MEMB      167             0.0000000000
     19291       167  CHL1      H16B          -18.1631534947      -28.9905049146       -8.0088750000  MEMB      167             0.0000000000
     19292       167  CHL1      C17           -18.2495841155      -31.1469755718       -8.5069550000  MEMB      167             0.0000000000
     19293       167  CHL1      H17           -19.2960336451      -30.8315235740       -8.7063850000  MEMB      167             0.0000000000
     19294       167  CHL1      C13           -17.7498324568      -31.7653854499       -9.8602650000  MEMB      167             0.0000000000
     19295       167  CHL1      C18           -16.3236929582      -32.3967841584       -9.5980950000  MEMB      167             0.0000000000
     19296       167  CHL1      H18A          -15.7083019010      -31.6502616572       -9.0519150000  MEMB      167             0.0000000000
     19297       167  CHL1      H18B          -16.4442637199      -33.2316228713       -8.8750250000  MEMB      167             0.0000000000
     19298       167  CHL1      H18C          -15.8467436022      -32.7151446256      -10.5496650000  MEMB      167             0.0000000000
     19299       167  CHL1      C12           -18.6339215381      -32.6785261828      -10.6783550000  MEMB      167             0.0000000000
     19300       167  CHL1      H12A          -18.8580568304      -33.7031989866      -10.3121250000  MEMB      167             0.0000000000
     19301       167  CHL1      H12B          -19.6256229669      -32.2040039864      -10.8385550000  MEMB      167             0.0000000000
     19302       167  CHL1      C11           -18.0478647582      -32.9741300564      -12.0392550000  MEMB      167             0.0000000000
     19303       167  CHL1      H11A          -17.2092072594      -33.6937240441      -11.9245250000  MEMB      167             0.0000000000
     19304       167  CHL1      H11B          -18.7715914254      -33.5452573337      -12.6592150000  MEMB      167             0.0000000000
     19305       167  CHL1      C9            -17.6945693298      -31.7060051182      -12.9056850000  MEMB      167             0.0000000000
     19306       167  CHL1      H9            -18.6873349741      -31.2397894943      -13.0828350000  MEMB      167             0.0000000000
     19307       167  CHL1      C10           -16.9653750256      -31.9403626428      -14.3098650000  MEMB      167             0.0000000000
     19308       167  CHL1      C19           -15.7023812685      -32.8526172761      -14.0639550000  MEMB      167             0.0000000000
     19309       167  CHL1      H19A          -16.1612130546      -33.7716220266      -13.6406050000  MEMB      167             0.0000000000
     19310       167  CHL1      H19B          -15.2784759796      -33.2586214483      -15.0072350000  MEMB      167             0.0000000000
     19311       167  CHL1      H19C          -14.9146035960      -32.3261005013      -13.4838650000  MEMB      167             0.0000000000
     19312       167  CHL1      C1            -17.8796283115      -32.5635442819      -15.4246950000  MEMB      167             0.0000000000
     19313       167  CHL1      H1A           -18.2175376501      -33.5358975637      -15.0067650000  MEMB      167             0.0000000000
     19314       167  CHL1      H1B           -18.8548566919      -32.0426920221      -15.5340250000  MEMB      167             0.0000000000
     19315       167  CHL1      C2            -17.2457243846      -32.7550705550      -16.8462650000  MEMB      167             0.0000000000
     19316       167  CHL1      H2A           -17.9176016490      -33.3313592675      -17.5176750000  MEMB      167             0.0000000000
     19317       167  CHL1      H2B           -16.3124806773      -33.3563271414      -16.8894750000  MEMB      167             0.0000000000
     19318       167  CHL1      C20           -18.1695962323      -31.9747688047       -7.2303750000  MEMB      167             0.0000000000
     19319       167  CHL1      H20           -17.1373140988      -32.3501353632       -7.0636150000  MEMB      167             0.0000000000
     19320       167  CHL1      C21           -19.1393208086      -33.1989863392       -7.3526250000  MEMB      167             0.0000000000
     19321       167  CHL1      H21A          -19.0753421263      -33.6979320523       -6.3620250000  MEMB      167             0.0000000000
     19322       167  CHL1      H21B          -18.6881292630      -33.9117436493       -8.0756250000  MEMB      167             0.0000000000
     19323       167  CHL1      H21C          -20.1451361210      -32.7958403804       -7.5978150000  MEMB      167             0.0000000000
     19324       167  CHL1      C22           -18.5891270890      -31.1391841052       -5.9560950000  MEMB      167             0.0000000000
     19325       167  CHL1      H22A          -18.2110439359      -30.0950977939       -5.9206650000  MEMB      167             0.0000000000
     19326       167  CHL1      H22B          -19.6874275510      -31.0309892223       -6.0840050000  MEMB      167             0.0000000000
     19327       167  CHL1      C23           -18.1383454716      -31.8439532767       -4.6301550000  MEMB      167             0.0000000000
     19328       167  CHL1      H23A          -18.5202847311      -32.8736850960       -4.4625550000  MEMB      167             0.0000000000
     19329       167  CHL1      H23B          -17.0496619697      -32.0427849522       -4.7279250000  MEMB      167             0.0000000000
     19330       167  CHL1      C24           -18.4622671851      -30.9875866274       -3.4139050000  MEMB      167             0.0000000000
     19331       167  CHL1      H24A          -17.9365660275      -30.0521507336       -3.7018550000  MEMB      167             0.0000000000
     19332       167  CHL1      H24B          -19.5591068462      -30.8789157608       -3.2744050000  MEMB      167             0.0000000000
     19333       167  CHL1      C25           -17.8029218228      -31.6623917986       -2.2458250000  MEMB      167             0.0000000000
     19334       167  CHL1      H25           -16.8169950818      -32.0902370394       -2.5272950000  MEMB      167             0.0000000000
     19335       167  CHL1      C26           -17.5646800030      -30.8465942800       -1.0247250000  MEMB      167             0.0000000000
     19336       167  CHL1      H26A          -17.2755028902      -29.8700247119       -1.4685650000  MEMB      167             0.0000000000
     19337       167  CHL1      H26B          -18.4960317596      -30.5835781976       -0.4790650000  MEMB      167             0.0000000000
     19338       167  CHL1      H26C          -16.7394350612      -31.2407958661       -0.3939350000  MEMB      167             0.0000000000
     19339       167  CHL1      C27           -18.6455794341      -32.7893199663       -1.7093050000  MEMB      167             0.0000000000
     19340       167  CHL1      H27A          -18.7507715898      -33.5861155329       -2.4763550000  MEMB      167             0.0000000000
     19341       167  CHL1      H27B          -18.1071659819      -33.3393904991       -0.9081450000  MEMB      167             0.0000000000
     19342       167  CHL1      H27C          -19.6104529893      -32.4449599695       -1.2794850000  MEMB      167             0.0000000000
     19343       168  SAPE      N              22.0472778114       25.3399375549      -22.0452038105  MEMB      168             0.0000000000
     19344       168  SAPE      HN1            22.5061599254       24.4341256856      -22.2699971865  MEMB      168             0.0000000000
     19345       168  SAPE      HN2            21.1043998241       25.4699045934      -22.4643571230  MEMB      168             0.0000000000
     19346       168  SAPE      HN3            22.6921289844       26.1079914901      -22.3206307474  MEMB      168             0.0000000000
     19347       168  SAPE      C12            21.9040406653       25.4469588672      -20.4920221346  MEMB      168             0.0000000000
     19348       168  SAPE      H12A           21.6503573589       24.4163428584      -20.1636987324  MEMB      168             0.0000000000
     19349       168  SAPE      H12B           21.1480274904       26.1552169171      -20.0906053070  MEMB      168             0.0000000000
     19350       168  SAPE      C11            23.2985001088       25.8879111995      -19.9996442055  MEMB      168             0.0000000000
     19351       168  SAPE      H11A           24.0819962684       25.2758180793      -20.4954230433  MEMB      168             0.0000000000
     19352       168  SAPE      H11B           23.4512293664       25.7729225421      -18.9052163485  MEMB      168             0.0000000000
     19353       168  SAPE      P              24.1490735750       28.3601683029      -19.5282450233  MEMB      168             0.0000000000
     19354       168  SAPE      O13            25.4748327739       27.8946401007      -19.0374463912  MEMB      168             0.0000000000
     19355       168  SAPE      O14            24.0346606367       29.6212769450      -20.2474686499  MEMB      168             0.0000000000
     19356       168  SAPE      O12            23.4941353541       27.1552343874      -20.3820705390  MEMB      168             0.0000000000
     19357       168  SAPE      O11            23.0673558858       28.4211174286      -18.2678992732  MEMB      168             0.0000000000
     19358       168  SAPE      C1             23.5221212845       29.5456355736      -17.3702834541  MEMB      168             0.0000000000
     19359       168  SAPE      HA             24.5474417614       29.5036755415      -16.9445154874  MEMB      168             0.0000000000
     19360       168  SAPE      HB             23.4981080168       30.5274366728      -17.8897169049  MEMB      168             0.0000000000
     19361       168  SAPE      C2             22.6874432158       29.5261282951      -16.0958581266  MEMB      168             0.0000000000
     19362       168  SAPE      HS             23.0337706104       30.3975973545      -15.5001065269  MEMB      168             0.0000000000
     19363       168  SAPE      O21            22.7408450187       28.2585151750      -15.3671491329  MEMB      168             0.0000000000
     19364       168  SAPE      C21            23.8111461496       28.0729824959      -14.6043569503  MEMB      168             0.0000000000
     19365       168  SAPE      O22            24.8405497116       28.7525400420      -14.5783094909  MEMB      168             0.0000000000
     19366       168  SAPE      C22            23.4216753539       26.9706667799      -13.5719164204  MEMB      168             0.0000000000
     19367       168  SAPE      H2R            22.5922865550       27.3393761420      -12.9312222257  MEMB      168             0.0000000000
     19368       168  SAPE      H2S            23.1946702841       26.0371310818      -14.1298597052  MEMB      168             0.0000000000
     19369       168  SAPE      C3             21.1492489551       29.8644431021      -16.3596371281  MEMB      168             0.0000000000
     19370       168  SAPE      HX             20.6958016560       28.9109785210      -16.7054861890  MEMB      168             0.0000000000
     19371       168  SAPE      HY             21.0106866970       30.4920528307      -17.2658530299  MEMB      168             0.0000000000
     19372       168  SAPE      O31            20.5109137189       30.4211191716      -15.1839924844  MEMB      168             0.0000000000
     19373       168  SAPE      C31            20.7921427352       31.7592117845      -14.9897455505  MEMB      168             0.0000000000
     19374       168  SAPE      O32            21.4067458212       32.4601944933      -15.7615681920  MEMB      168             0.0000000000
     19375       168  SAPE      C32            20.2449969646       32.1862843215      -13.6272224175  MEMB      168             0.0000000000
     19376       168  SAPE      H2X            19.5056818441       31.4314536695      -13.2837624479  MEMB      168             0.0000000000
     19377       168  SAPE      H2Y            19.7986390402       33.1372755330      -13.9887494689  MEMB      168             0.0000000000
     19378       168  SAPE      C23            24.5042687473       26.6772537826      -12.5468037133  MEMB      168             0.0000000000
     19379       168  SAPE      H3R            25.1067716969       27.5915162320      -12.3585604566  MEMB      168             0.0000000000
     19380       168  SAPE      H3S            25.1041069829       25.9839200921      -13.1743414552  MEMB      168             0.0000000000
     19381       168  SAPE      C24            24.0784971667       26.0366951627      -11.2654259522  MEMB      168             0.0000000000
     19382       168  SAPE      H4R            23.3730162969       26.6742928828      -10.6908948885  MEMB      168             0.0000000000
     19383       168  SAPE      H4S            25.0155367382       25.9141689666      -10.6812474170  MEMB      168             0.0000000000
     19384       168  SAPE      C25            23.6869777302       24.5793736519      -11.5192124821  MEMB      168             0.0000000000
     19385       168  SAPE      H5R            24.5760264012       23.9456504148      -11.6533295066  MEMB      168             0.0000000000
     19386       168  SAPE      C26            22.4382878651       24.1273336648      -11.2926776148  MEMB      168             0.0000000000
     19387       168  SAPE      H6R            22.3665161645       23.0442248239      -11.4707877503  MEMB      168             0.0000000000
     19388       168  SAPE      C27            21.2711378001       24.8661429077      -10.8237108239  MEMB      168             0.0000000000
     19389       168  SAPE      H7R            20.3542460475       24.4337713893      -11.2783374188  MEMB      168             0.0000000000
     19390       168  SAPE      H7S            21.2539158030       25.9184380266      -11.1796599170  MEMB      168             0.0000000000
     19391       168  SAPE      C28            21.0467151041       24.5810598851       -9.3293853843  MEMB      168             0.0000000000
     19392       168  SAPE      H8R            21.5631615221       23.6914244759       -8.9397288725  MEMB      168             0.0000000000
     19393       168  SAPE      C29            20.3579484768       25.3267464014       -8.4440134186  MEMB      168             0.0000000000
     19394       168  SAPE      H9R            20.1023756390       24.8745507205       -7.4743730653  MEMB      168             0.0000000000
     19395       168  SAPE      C210           19.6786547406       26.6453469931       -8.8150890840  MEMB      168             0.0000000000
     19396       168  SAPE      H10R           19.2494610511       26.5717440553       -9.8371928580  MEMB      168             0.0000000000
     19397       168  SAPE      H10S           20.5033939992       27.3868619897       -8.7496555395  MEMB      168             0.0000000000
     19398       168  SAPE      C211           18.5230982594       27.0446482713       -7.8936315688  MEMB      168             0.0000000000
     19399       168  SAPE      H11R           17.5753925787       27.0063301551       -8.4507544282  MEMB      168             0.0000000000
     19400       168  SAPE      C212           18.5978728664       27.5734041841       -6.6963754650  MEMB      168             0.0000000000
     19401       168  SAPE      H12R           17.6357110724       27.6161667545       -6.1649469369  MEMB      168             0.0000000000
     19402       168  SAPE      C213           19.8423877322       27.9217580548       -5.9018991990  MEMB      168             0.0000000000
     19403       168  SAPE      H13R           19.7056213403       28.8070565181       -5.2447364226  MEMB      168             0.0000000000
     19404       168  SAPE      H13S           20.6588517647       28.2337219310       -6.5877460551  MEMB      168             0.0000000000
     19405       168  SAPE      C214           20.3205628816       26.7239988191       -5.1099435625  MEMB      168             0.0000000000
     19406       168  SAPE      H14R           20.7341658218       25.9301608773       -5.7492829963  MEMB      168             0.0000000000
     19407       168  SAPE      C215           20.0173271947       26.4057088823       -3.8458489506  MEMB      168             0.0000000000
     19408       168  SAPE      H15R           20.5981899974       25.5615001857       -3.4459618537  MEMB      168             0.0000000000
     19409       168  SAPE      C216           19.1533107159       27.1262578498       -2.8525202677  MEMB      168             0.0000000000
     19410       168  SAPE      H16R           19.4316294462       26.5787196982       -1.9267446552  MEMB      168             0.0000000000
     19411       168  SAPE      H16S           18.0712749135       27.0198585735       -3.0809905192  MEMB      168             0.0000000000
     19412       168  SAPE      C217           19.3508094451       28.5962546542       -2.5635518218  MEMB      168             0.0000000000
     19413       168  SAPE      H17R           18.7679925372       28.9249901937       -1.6766588482  MEMB      168             0.0000000000
     19414       168  SAPE      H17S           19.0946946634       29.1879377002       -3.4683381057  MEMB      168             0.0000000000
     19415       168  SAPE      C218           20.7739950915       29.0024591500       -2.1911774493  MEMB      168             0.0000000000
     19416       168  SAPE      H18R           20.8633394667       30.1025798874       -2.0643978402  MEMB      168             0.0000000000
     19417       168  SAPE      H18S           21.5326632004       28.6398852637       -2.9173216164  MEMB      168             0.0000000000
     19418       168  SAPE      C219           21.2688529403       28.3010902812       -0.9159868846  MEMB      168             0.0000000000
     19419       168  SAPE      H19R           22.3160807401       28.5547016107       -0.6452169682  MEMB      168             0.0000000000
     19420       168  SAPE      H19S           21.4591932953       27.2219645258       -1.0992345358  MEMB      168             0.0000000000
     19421       168  SAPE      C220           20.3273512897       28.5682675464        0.2946968657  MEMB      168             0.0000000000
     19422       168  SAPE      H20R           19.3635258262       28.0485460017        0.1069438727  MEMB      168             0.0000000000
     19423       168  SAPE      H20S           20.2247349985       29.6668851224        0.4244294844  MEMB      168             0.0000000000
     19424       168  SAPE      H20T           20.6795574055       28.1312303320        1.2534825873  MEMB      168             0.0000000000
     19425       168  SAPE      C33            21.3170132991       32.3334566712      -12.5152090076  MEMB      168             0.0000000000
     19426       168  SAPE      H3X            20.8863949559       32.8575487269      -11.6353135976  MEMB      168             0.0000000000
     19427       168  SAPE      H3Y            22.0350412045       33.0768458381      -12.9227994751  MEMB      168             0.0000000000
     19428       168  SAPE      C34            22.0513137883       31.0183496268      -12.0733634113  MEMB      168             0.0000000000
     19429       168  SAPE      H4X            22.6179823422       30.5093669368      -12.8821558345  MEMB      168             0.0000000000
     19430       168  SAPE      H4Y            21.2921266333       30.3372576865      -11.6328301754  MEMB      168             0.0000000000
     19431       168  SAPE      C35            23.0321587717       31.1748382296      -10.9100686992  MEMB      168             0.0000000000
     19432       168  SAPE      H5X            22.3572117546       31.5227410826      -10.0990629504  MEMB      168             0.0000000000
     19433       168  SAPE      H5Y            23.9412307730       31.7920090084      -11.0744143525  MEMB      168             0.0000000000
     19434       168  SAPE      C36            23.5638104201       29.8156701311      -10.3038669487  MEMB      168             0.0000000000
     19435       168  SAPE      H6X            24.2561735473       29.2878311103      -10.9940410808  MEMB      168             0.0000000000
     19436       168  SAPE      H6Y            22.6660604932       29.1688326429      -10.2040297639  MEMB      168             0.0000000000
     19437       168  SAPE      C37            24.2809597297       29.9514987196       -8.9696860656  MEMB      168             0.0000000000
     19438       168  SAPE      H7X            23.5666908921       30.4484121368       -8.2788758240  MEMB      168             0.0000000000
     19439       168  SAPE      H7Y            25.0873127664       30.7075078505       -9.0817828522  MEMB      168             0.0000000000
     19440       168  SAPE      C38            24.8157530116       28.6227069542       -8.3865105282  MEMB      168             0.0000000000
     19441       168  SAPE      H8X            25.5820144833       28.9927387727       -7.6721987473  MEMB      168             0.0000000000
     19442       168  SAPE      H8Y            25.3489659427       27.9149397075       -9.0566375533  MEMB      168             0.0000000000
     19443       168  SAPE      C39            23.7789669579       27.7037044057       -7.6523135531  MEMB      168             0.0000000000
     19444       168  SAPE      H9X            22.8523902254       27.5897587959       -8.2546369490  MEMB      168             0.0000000000
     19445       168  SAPE      H9Y            23.4598416400       28.2064762087       -6.7143905973  MEMB      168             0.0000000000
     19446       168  SAPE      C310           24.3459345193       26.3876277533       -7.1032288123  MEMB      168             0.0000000000
     19447       168  SAPE      H10X           24.4167542605       25.7474810246       -8.0085008037  MEMB      168             0.0000000000
     19448       168  SAPE      H10Y           23.5830448336       25.9791832190       -6.4064551829  MEMB      168             0.0000000000
     19449       168  SAPE      C311           25.7028695166       26.5053141700       -6.4295284278  MEMB      168             0.0000000000
     19450       168  SAPE      H11X           26.5739361222       26.8180453675       -7.0441529249  MEMB      168             0.0000000000
     19451       168  SAPE      H11Y           26.0829225649       25.5317456852       -6.0526400583  MEMB      168             0.0000000000
     19452       168  SAPE      C312           25.7441952387       27.4114752456       -5.1766982342  MEMB      168             0.0000000000
     19453       168  SAPE      H12X           25.3797689824       28.3904697643       -5.5549628469  MEMB      168             0.0000000000
     19454       168  SAPE      H12Y           26.7313578913       27.3204876855       -4.6751484112  MEMB      168             0.0000000000
     19455       168  SAPE      C313           24.7494207106       27.0150615279       -4.0121288307  MEMB      168             0.0000000000
     19456       168  SAPE      H13X           25.0416174922       25.9628531035       -3.8076798526  MEMB      168             0.0000000000
     19457       168  SAPE      H13Y           23.6992785862       27.1489102861       -4.3491852885  MEMB      168             0.0000000000
     19458       168  SAPE      C314           24.9338680556       27.7359353389       -2.6665579081  MEMB      168             0.0000000000
     19459       168  SAPE      H14X           25.8789087642       27.4965010902       -2.1337440567  MEMB      168             0.0000000000
     19460       168  SAPE      H14Y           24.0308184130       27.6510890883       -2.0249775994  MEMB      168             0.0000000000
     19461       168  SAPE      C315           24.9687828720       29.2582382137       -2.9179690654  MEMB      168             0.0000000000
     19462       168  SAPE      H15X           24.0483941130       29.4348182376       -3.5146478910  MEMB      168             0.0000000000
     19463       168  SAPE      H15Y           25.8810160921       29.4193651286       -3.5313125196  MEMB      168             0.0000000000
     19464       168  SAPE      C316           24.7668911727       30.1737308696       -1.7371644976  MEMB      168             0.0000000000
     19465       168  SAPE      H16X           23.7553079229       30.1379097243       -1.2791937977  MEMB      168             0.0000000000
     19466       168  SAPE      H16Y           24.7520952771       31.1966649850       -2.1704176645  MEMB      168             0.0000000000
     19467       168  SAPE      C317           25.9131557924       29.9939751397       -0.7061195136  MEMB      168             0.0000000000
     19468       168  SAPE      H17X           26.8184959222       29.9135301382       -1.3450321007  MEMB      168             0.0000000000
     19469       168  SAPE      H17Y           25.8387802103       29.1018340948       -0.0481888339  MEMB      168             0.0000000000
     19470       168  SAPE      C318           26.1649567868       31.2265753787        0.1542424233  MEMB      168             0.0000000000
     19471       168  SAPE      H18X           27.0826895978       31.1741251889        0.7782118614  MEMB      168             0.0000000000
     19472       168  SAPE      H18Y           25.2337770507       31.4627801407        0.7123054894  MEMB      168             0.0000000000
     19473       168  SAPE      H18Z           26.3668466493       32.1202520566       -0.4741706683  MEMB      168             0.0000000000
     19474       169  SOPE      N              10.1136092013       37.8239791979      -21.3036914173  MEMB      169             0.0000000000
     19475       169  SOPE      HN1            10.7982064037       38.6055677306      -21.2584608968  MEMB      169             0.0000000000
     19476       169  SOPE      HN2            10.2392405738       37.1678119014      -22.1007241860  MEMB      169             0.0000000000
     19477       169  SOPE      HN3             9.1812085907       38.2230296306      -21.5338825582  MEMB      169             0.0000000000
     19478       169  SOPE      C12            10.2153329847       36.9963984868      -20.0775155941  MEMB      169             0.0000000000
     19479       169  SOPE      H12A            9.8453851689       37.6550607617      -19.2628847393  MEMB      169             0.0000000000
     19480       169  SOPE      H12B           11.2933543816       36.8614978134      -19.8451522452  MEMB      169             0.0000000000
     19481       169  SOPE      C11             9.4656543685       35.6683140274      -20.1284343311  MEMB      169             0.0000000000
     19482       169  SOPE      H11A            8.3856180811       35.9158963169      -20.0475296105  MEMB      169             0.0000000000
     19483       169  SOPE      H11B            9.5836647415       35.0879439459      -19.1884529445  MEMB      169             0.0000000000
     19484       169  SOPE      P              10.2829501339       33.4965917018      -21.3426062174  MEMB      169             0.0000000000
     19485       169  SOPE      O13            11.4526184008       33.3995088153      -20.5280637047  MEMB      169             0.0000000000
     19486       169  SOPE      O14            10.3815370243       33.1221744388      -22.7738875469  MEMB      169             0.0000000000
     19487       169  SOPE      O12             9.6906600217       34.9208687937      -21.2499647712  MEMB      169             0.0000000000
     19488       169  SOPE      O11             9.1357146641       32.6936765341      -20.5958363946  MEMB      169             0.0000000000
     19489       169  SOPE      C1              7.9004309066       32.2792595563      -21.1011203170  MEMB      169             0.0000000000
     19490       169  SOPE      HA              8.0749506330       31.7085734913      -22.0382335969  MEMB      169             0.0000000000
     19491       169  SOPE      HB              7.3239132433       33.1820259493      -21.3960127155  MEMB      169             0.0000000000
     19492       169  SOPE      C2              6.9520517003       31.6416753496      -20.0712238487  MEMB      169             0.0000000000
     19493       169  SOPE      HS              5.9221874955       31.5401045231      -20.4754314121  MEMB      169             0.0000000000
     19494       169  SOPE      O21             7.1264575422       32.3952443254      -18.7903338746  MEMB      169             0.0000000000
     19495       169  SOPE      C21             6.0374475297       32.3021110287      -18.0271171865  MEMB      169             0.0000000000
     19496       169  SOPE      O22             5.0446187013       31.6616956443      -18.3440947712  MEMB      169             0.0000000000
     19497       169  SOPE      C22             6.2887872914       33.1820267049      -16.8150698174  MEMB      169             0.0000000000
     19498       169  SOPE      H2R             6.8736597493       32.6303245414      -16.0483432743  MEMB      169             0.0000000000
     19499       169  SOPE      H2S             5.3712652415       33.5372829731      -16.2990593919  MEMB      169             0.0000000000
     19500       169  SOPE      C3              7.3648687534       30.1862614101      -19.8445180871  MEMB      169             0.0000000000
     19501       169  SOPE      HX              7.2635179437       29.5056653408      -20.7167783841  MEMB      169             0.0000000000
     19502       169  SOPE      HY              6.6154473425       29.7307961792      -19.1624332170  MEMB      169             0.0000000000
     19503       169  SOPE      O31             8.6950102889       29.9079967525      -19.4713665304  MEMB      169             0.0000000000
     19504       169  SOPE      C31             8.8561051284       29.8074503073      -18.1405649132  MEMB      169             0.0000000000
     19505       169  SOPE      O32             7.9644341466       29.7932980534      -17.2883709108  MEMB      169             0.0000000000
     19506       169  SOPE      C32            10.3761022692       29.7297528527      -17.7747937133  MEMB      169             0.0000000000
     19507       169  SOPE      H2X            11.0112725990       29.8878830849      -18.6724987458  MEMB      169             0.0000000000
     19508       169  SOPE      H2Y            10.4761880409       28.7373870254      -17.2853924847  MEMB      169             0.0000000000
     19509       169  SOPE      C23             6.9869811727       34.4957680292      -17.1295879161  MEMB      169             0.0000000000
     19510       169  SOPE      H3R             6.5536328833       35.0989142657      -17.9558719737  MEMB      169             0.0000000000
     19511       169  SOPE      H3S             7.9978293548       34.3353610520      -17.5617643882  MEMB      169             0.0000000000
     19512       169  SOPE      C24             7.0126219971       35.5842596434      -15.9216794916  MEMB      169             0.0000000000
     19513       169  SOPE      H4R             5.9675566421       35.9157730312      -15.7420736806  MEMB      169             0.0000000000
     19514       169  SOPE      H4S             7.4242614327       35.1376736292      -14.9913921266  MEMB      169             0.0000000000
     19515       169  SOPE      C25             7.8819596757       36.8012605877      -16.0955680510  MEMB      169             0.0000000000
     19516       169  SOPE      H5R             8.9375017344       36.5131678760      -16.2883238835  MEMB      169             0.0000000000
     19517       169  SOPE      H5S             7.5253477024       37.3554277590      -16.9900220015  MEMB      169             0.0000000000
     19518       169  SOPE      C26             7.7834039147       37.7785580142      -14.8642093628  MEMB      169             0.0000000000
     19519       169  SOPE      H6R             7.9116985565       38.7872117870      -15.3119582303  MEMB      169             0.0000000000
     19520       169  SOPE      H6S             6.7446675366       37.8752481559      -14.4821112660  MEMB      169             0.0000000000
     19521       169  SOPE      C27             8.8280997466       37.6209475164      -13.7151378303  MEMB      169             0.0000000000
     19522       169  SOPE      H7R             9.8081232837       37.3431624829      -14.1586581100  MEMB      169             0.0000000000
     19523       169  SOPE      H7S             8.9979272630       38.6248281288      -13.2704996563  MEMB      169             0.0000000000
     19524       169  SOPE      C28             8.4692727957       36.5124766402      -12.6822814504  MEMB      169             0.0000000000
     19525       169  SOPE      H8R             8.5529139918       35.5000687627      -13.1321212887  MEMB      169             0.0000000000
     19526       169  SOPE      H8S             9.1447568626       36.4123618223      -11.8059146131  MEMB      169             0.0000000000
     19527       169  SOPE      C29             7.0586746711       36.4701339766      -12.1354461745  MEMB      169             0.0000000000
     19528       169  SOPE      H91             6.2764587683       35.8872281633      -12.6437367387  MEMB      169             0.0000000000
     19529       169  SOPE      C210            6.6594171621       37.1650269173      -11.0719090485  MEMB      169             0.0000000000
     19530       169  SOPE      H101            5.6207287196       36.9783026329      -10.7616514007  MEMB      169             0.0000000000
     19531       169  SOPE      C211            7.2886996052       38.1193422044      -10.1256390804  MEMB      169             0.0000000000
     19532       169  SOPE      H11R            6.5989451341       38.9654300279       -9.9190130501  MEMB      169             0.0000000000
     19533       169  SOPE      H11S            8.0858794314       38.6367709219      -10.7010463090  MEMB      169             0.0000000000
     19534       169  SOPE      C212            7.8500540241       37.4034176270       -8.8789484879  MEMB      169             0.0000000000
     19535       169  SOPE      H12R            8.3724216447       38.1873640260       -8.2899824695  MEMB      169             0.0000000000
     19536       169  SOPE      H12S            8.5961817001       36.6910424790       -9.2914242588  MEMB      169             0.0000000000
     19537       169  SOPE      C213            6.8146956299       36.6457237411       -8.0384173563  MEMB      169             0.0000000000
     19538       169  SOPE      H13R            6.2296423617       35.8716252093       -8.5795320177  MEMB      169             0.0000000000
     19539       169  SOPE      H13S            6.0502337258       37.3845167401       -7.7157655828  MEMB      169             0.0000000000
     19540       169  SOPE      C214            7.3211969005       35.9461097528       -6.7924222410  MEMB      169             0.0000000000
     19541       169  SOPE      H14R            8.1183139281       36.5445691220       -6.3017370544  MEMB      169             0.0000000000
     19542       169  SOPE      H14S            7.9172060478       35.0514022429       -7.0727655767  MEMB      169             0.0000000000
     19543       169  SOPE      C215            6.3104361945       35.4612206281       -5.7911594467  MEMB      169             0.0000000000
     19544       169  SOPE      H15R            5.5077503928       35.0582559558       -6.4450979674  MEMB      169             0.0000000000
     19545       169  SOPE      H15S            5.8879123568       36.3873275868       -5.3460525615  MEMB      169             0.0000000000
     19546       169  SOPE      C216            6.8418556378       34.3338271980       -4.8578197386  MEMB      169             0.0000000000
     19547       169  SOPE      H16R            7.1803455483       33.4573537145       -5.4507279489  MEMB      169             0.0000000000
     19548       169  SOPE      H16S            5.9653942816       34.0268257296       -4.2479945095  MEMB      169             0.0000000000
     19549       169  SOPE      C217            7.9658037351       34.8541032369       -3.8735471536  MEMB      169             0.0000000000
     19550       169  SOPE      H17R            7.7159795157       35.7826408700       -3.3170170813  MEMB      169             0.0000000000
     19551       169  SOPE      H17S            8.8393374381       35.0413173282       -4.5340094939  MEMB      169             0.0000000000
     19552       169  SOPE      C218            8.2135550011       33.7815256186       -2.7945395299  MEMB      169             0.0000000000
     19553       169  SOPE      H18R            7.4265880680       33.9088486600       -2.0207219545  MEMB      169             0.0000000000
     19554       169  SOPE      H18S            9.1999957160       33.8799603869       -2.2929752803  MEMB      169             0.0000000000
     19555       169  SOPE      H18T            8.1090061795       32.7598352185       -3.2182603731  MEMB      169             0.0000000000
     19556       169  SOPE      C33            10.6607293487       30.7666936165      -16.5965690816  MEMB      169             0.0000000000
     19557       169  SOPE      H3X            11.6183715403       30.5167155390      -16.0918379486  MEMB      169             0.0000000000
     19558       169  SOPE      H3Y             9.8317147226       30.5199320245      -15.8993138738  MEMB      169             0.0000000000
     19559       169  SOPE      C34            10.5853067381       32.2317267552      -16.9521123359  MEMB      169             0.0000000000
     19560       169  SOPE      H4X             9.5719364734       32.4607661834      -17.3457397036  MEMB      169             0.0000000000
     19561       169  SOPE      H4Y            11.3092042490       32.4132460790      -17.7751212728  MEMB      169             0.0000000000
     19562       169  SOPE      C35            10.7803949486       33.1580673124      -15.7866915220  MEMB      169             0.0000000000
     19563       169  SOPE      H5X            10.0320253485       32.8304227389      -15.0337554536  MEMB      169             0.0000000000
     19564       169  SOPE      H5Y            10.4982290254       34.1781991991      -16.1243815916  MEMB      169             0.0000000000
     19565       169  SOPE      C36            12.1756754343       33.2854003728      -15.1732298505  MEMB      169             0.0000000000
     19566       169  SOPE      H6X            12.7486000482       33.7798496828      -15.9866165263  MEMB      169             0.0000000000
     19567       169  SOPE      H6Y            12.7217546896       32.3442187760      -14.9489625195  MEMB      169             0.0000000000
     19568       169  SOPE      C37            12.2100161338       34.2685887318      -13.9658323771  MEMB      169             0.0000000000
     19569       169  SOPE      H7X            11.5364534755       33.7946445617      -13.2201707845  MEMB      169             0.0000000000
     19570       169  SOPE      H7Y            11.8837534228       35.2787545720      -14.2936105874  MEMB      169             0.0000000000
     19571       169  SOPE      C38            13.6598139491       34.2396128698      -13.3799392690  MEMB      169             0.0000000000
     19572       169  SOPE      H8X            14.4689392688       34.4305058194      -14.1169581882  MEMB      169             0.0000000000
     19573       169  SOPE      H8Y            13.8294407726       33.1813856634      -13.0871893159  MEMB      169             0.0000000000
     19574       169  SOPE      C39            13.8126780738       35.2655342956      -12.2592352549  MEMB      169             0.0000000000
     19575       169  SOPE      H9X            13.5692316270       36.2833749653      -12.6321371262  MEMB      169             0.0000000000
     19576       169  SOPE      H9Y            14.8519305592       35.2050271799      -11.8711466679  MEMB      169             0.0000000000
     19577       169  SOPE      C310           12.9529521905       34.8530022910      -11.1112627870  MEMB      169             0.0000000000
     19578       169  SOPE      H10X           13.1414713362       33.7626449144      -11.0117528993  MEMB      169             0.0000000000
     19579       169  SOPE      H10Y           11.9072158059       34.9840507978      -11.4628064212  MEMB      169             0.0000000000
     19580       169  SOPE      C311           13.2417915620       35.4592105625       -9.7149699634  MEMB      169             0.0000000000
     19581       169  SOPE      H11X           13.0930125718       36.5558670868       -9.8125946633  MEMB      169             0.0000000000
     19582       169  SOPE      H11Y           14.2847892108       35.2349803906       -9.4048137616  MEMB      169             0.0000000000
     19583       169  SOPE      C312           12.4696667792       34.9620470638       -8.4811991966  MEMB      169             0.0000000000
     19584       169  SOPE      H12X           12.7339725788       33.9034419919       -8.2718696645  MEMB      169             0.0000000000
     19585       169  SOPE      H12Y           11.4252897064       35.0376238960       -8.8525284867  MEMB      169             0.0000000000
     19586       169  SOPE      C313           12.7142898570       35.7355669790       -7.1797102819  MEMB      169             0.0000000000
     19587       169  SOPE      H13X           12.4617817312       36.8040490081       -7.3497299029  MEMB      169             0.0000000000
     19588       169  SOPE      H13Y           13.7925708491       35.7008066880       -6.9143379241  MEMB      169             0.0000000000
     19589       169  SOPE      C314           11.9281707680       35.2010047314       -5.9433465469  MEMB      169             0.0000000000
     19590       169  SOPE      H14X           12.1898698607       34.1405951478       -5.7399596583  MEMB      169             0.0000000000
     19591       169  SOPE      H14Y           10.8835989628       34.9683186973       -6.2417556535  MEMB      169             0.0000000000
     19592       169  SOPE      C315           11.8313365614       35.9918346627       -4.6199632393  MEMB      169             0.0000000000
     19593       169  SOPE      H15X           12.8651829321       36.0915553146       -4.2255796179  MEMB      169             0.0000000000
     19594       169  SOPE      H15Y           11.2177511459       35.3163433438       -3.9862858002  MEMB      169             0.0000000000
     19595       169  SOPE      C316           11.2528502287       37.4113486825       -4.7543767827  MEMB      169             0.0000000000
     19596       169  SOPE      H16X           10.3612213106       37.4228532850       -5.4170881772  MEMB      169             0.0000000000
     19597       169  SOPE      H16Y           11.9013447183       38.0984186143       -5.3389371081  MEMB      169             0.0000000000
     19598       169  SOPE      C317           10.9805556337       38.1613056689       -3.4282282921  MEMB      169             0.0000000000
     19599       169  SOPE      H17X           10.6967135778       39.2024767948       -3.6922677882  MEMB      169             0.0000000000
     19600       169  SOPE      H17Y           11.9530103743       38.2041984147       -2.8926789498  MEMB      169             0.0000000000
     19601       169  SOPE      C318            9.8857858687       37.5471514940       -2.6577285726  MEMB      169             0.0000000000
     19602       169  SOPE      H18X            9.9165812971       37.8619065817       -1.5926914534  MEMB      169             0.0000000000
     19603       169  SOPE      H18Y           10.1109382374       36.4592051468       -2.6576663585  MEMB      169             0.0000000000
     19604       169  SOPE      H18Z            8.9489881763       37.8182204019       -3.1899421566  MEMB      169             0.0000000000
     19605       170  SLPC      N             -22.8967316755      -27.6265048886      -18.8855258321  MEMB      170             0.0000000000
     19606       170  SLPC      C13           -24.3952805489      -27.6674647799      -19.1752591214  MEMB      170             0.0000000000
     19607       170  SLPC      H13A          -24.5131000630      -27.1816083184      -20.1325793316  MEMB      170             0.0000000000
     19608       170  SLPC      H13B          -24.8694103536      -28.6364775048      -19.1241193707  MEMB      170             0.0000000000
     19609       170  SLPC      H13C          -24.8436225613      -27.0116687228      -18.4436028478  MEMB      170             0.0000000000
     19610       170  SLPC      C14           -22.4102977781      -26.1690165112      -18.9939451619  MEMB      170             0.0000000000
     19611       170  SLPC      H14A          -22.5540926876      -25.7940557015      -19.9965054522  MEMB      170             0.0000000000
     19612       170  SLPC      H14B          -22.9919330359      -25.6344962187      -18.2574749123  MEMB      170             0.0000000000
     19613       170  SLPC      H14C          -21.3668819271      -25.9930136389      -18.7778294555  MEMB      170             0.0000000000
     19614       170  SLPC      C15           -22.1326896850      -28.4730150661      -19.7821584046  MEMB      170             0.0000000000
     19615       170  SLPC      H15A          -21.0644532461      -28.3429013003      -19.6908256324  MEMB      170             0.0000000000
     19616       170  SLPC      H15B          -22.3818089614      -29.5196366576      -19.6876977343  MEMB      170             0.0000000000
     19617       170  SLPC      H15C          -22.3335818749      -28.2837990971      -20.8263038153  MEMB      170             0.0000000000
     19618       170  SLPC      C12           -22.6777090555      -28.1975903217      -17.5122578684  MEMB      170             0.0000000000
     19619       170  SLPC      H12A          -21.6208096367      -28.2772298034      -17.3048419308  MEMB      170             0.0000000000
     19620       170  SLPC      H12B          -23.0339473529      -29.2046220817      -17.6715727205  MEMB      170             0.0000000000
     19621       170  SLPC      C11           -23.4049089433      -27.5484026635      -16.2240018403  MEMB      170             0.0000000000
     19622       170  SLPC      H11A          -23.1672792983      -26.4646700906      -16.2821118391  MEMB      170             0.0000000000
     19623       170  SLPC      H11B          -22.9539318928      -28.0409359920      -15.3361102016  MEMB      170             0.0000000000
     19624       170  SLPC      P             -25.3541235700      -28.7940334455      -15.2816889710  MEMB      170             0.0000000000
     19625       170  SLPC      O13           -25.2548880174      -30.1880503567      -15.7704599242  MEMB      170             0.0000000000
     19626       170  SLPC      O14           -24.7088855407      -28.6268883985      -13.9256565299  MEMB      170             0.0000000000
     19627       170  SLPC      O12           -24.7590979836      -27.7750931088      -16.2705496027  MEMB      170             0.0000000000
     19628       170  SLPC      O11           -26.9253594379      -28.3606407051      -15.1784967394  MEMB      170             0.0000000000
     19629       170  SLPC      C1            -27.6249125489      -28.3296712208      -16.3617909294  MEMB      170             0.0000000000
     19630       170  SLPC      HA            -27.2017653795      -27.5767112293      -17.0605889527  MEMB      170             0.0000000000
     19631       170  SLPC      HB            -27.6083472236      -29.3493863179      -16.8025035732  MEMB      170             0.0000000000
     19632       170  SLPC      C2            -29.1785452441      -28.1077819101      -16.2365226096  MEMB      170             0.0000000000
     19633       170  SLPC      HS            -29.6852690364      -27.9477380025      -17.2121956658  MEMB      170             0.0000000000
     19634       170  SLPC      O21           -29.4974899437      -26.9908680039      -15.4042018044  MEMB      170             0.0000000000
     19635       170  SLPC      C21           -29.0524664322      -25.7767047879      -15.6405973685  MEMB      170             0.0000000000
     19636       170  SLPC      O22           -28.3703929636      -25.4277179551      -16.5758851592  MEMB      170             0.0000000000
     19637       170  SLPC      C22           -29.5046603765      -24.8500945407      -14.4778170461  MEMB      170             0.0000000000
     19638       170  SLPC      H2R           -29.6409685244      -23.7920899467      -14.7882484894  MEMB      170             0.0000000000
     19639       170  SLPC      H2S           -30.3888303874      -25.2077056962      -13.9080115324  MEMB      170             0.0000000000
     19640       170  SLPC      C3            -29.9294089780      -29.3304912757      -15.6290447488  MEMB      170             0.0000000000
     19641       170  SLPC      HX            -29.7700884570      -30.2161936671      -16.2805577358  MEMB      170             0.0000000000
     19642       170  SLPC      HY            -31.0193432232      -29.1155678561      -15.6421588820  MEMB      170             0.0000000000
     19643       170  SLPC      O31           -29.3728014580      -29.6088580756      -14.3101031010  MEMB      170             0.0000000000
     19644       170  SLPC      C31           -28.5483797942      -30.6420427724      -14.1132386129  MEMB      170             0.0000000000
     19645       170  SLPC      O32           -28.1218376448      -31.3742406123      -15.0172179455  MEMB      170             0.0000000000
     19646       170  SLPC      C32           -28.2160654645      -30.6255450396      -12.6113982392  MEMB      170             0.0000000000
     19647       170  SLPC      H2X           -29.1895672397      -30.6735872729      -12.0781937520  MEMB      170             0.0000000000
     19648       170  SLPC      H2Y           -27.7600160923      -29.6718085737      -12.2697453376  MEMB      170             0.0000000000
     19649       170  SLPC      C23           -28.3163811935      -24.6716077251      -13.5165114131  MEMB      170             0.0000000000
     19650       170  SLPC      H3R           -28.5411146076      -23.7988203880      -12.8668517950  MEMB      170             0.0000000000
     19651       170  SLPC      H3S           -27.4560395116      -24.3887366365      -14.1600310510  MEMB      170             0.0000000000
     19652       170  SLPC      C24           -28.0706046861      -25.8946896672      -12.5918255685  MEMB      170             0.0000000000
     19653       170  SLPC      H4R           -27.8676242249      -26.7672529900      -13.2489051900  MEMB      170             0.0000000000
     19654       170  SLPC      H4S           -28.9588139385      -26.0655821471      -11.9466890509  MEMB      170             0.0000000000
     19655       170  SLPC      C25           -26.7809059795      -25.7123934243      -11.8272073874  MEMB      170             0.0000000000
     19656       170  SLPC      H5R           -26.7834206403      -24.7235728509      -11.3207006845  MEMB      170             0.0000000000
     19657       170  SLPC      H5S           -25.9148542002      -25.6673208710      -12.5216448848  MEMB      170             0.0000000000
     19658       170  SLPC      C26           -26.4243308892      -26.8904814348      -10.8968664424  MEMB      170             0.0000000000
     19659       170  SLPC      H6R           -25.5560491045      -26.6055188139      -10.2650407083  MEMB      170             0.0000000000
     19660       170  SLPC      H6S           -26.1177499090      -27.7771411364      -11.4919829277  MEMB      170             0.0000000000
     19661       170  SLPC      C27           -27.5604685912      -27.3802552814       -9.9547482306  MEMB      170             0.0000000000
     19662       170  SLPC      H7R           -26.9798728687      -28.0756602875       -9.3115986031  MEMB      170             0.0000000000
     19663       170  SLPC      H7S           -28.2065320075      -27.9996316816      -10.6130005994  MEMB      170             0.0000000000
     19664       170  SLPC      C28           -28.3501796787      -26.2971440186       -9.1145497064  MEMB      170             0.0000000000
     19665       170  SLPC      H8R           -29.2088286057      -26.8779217495       -8.7148753854  MEMB      170             0.0000000000
     19666       170  SLPC      H8S           -28.8123273253      -25.5986660248       -9.8445283781  MEMB      170             0.0000000000
     19667       170  SLPC      C29           -27.5842851030      -25.4610852460       -8.0342617792  MEMB      170             0.0000000000
     19668       170  SLPC      H9R           -26.7926488408      -24.8307792630       -8.4655690352  MEMB      170             0.0000000000
     19669       170  SLPC      C210          -27.8454959426      -25.4763674244       -6.7208719042  MEMB      170             0.0000000000
     19670       170  SLPC      H10R          -27.3724987448      -24.7213333002       -6.0757380866  MEMB      170             0.0000000000
     19671       170  SLPC      C211          -28.8526384643      -26.2468215961       -5.8510252693  MEMB      170             0.0000000000
     19672       170  SLPC      H11R          -29.7507489077      -26.5286651411       -6.4411797623  MEMB      170             0.0000000000
     19673       170  SLPC      H11S          -29.4091465238      -25.6286354778       -5.1145014504  MEMB      170             0.0000000000
     19674       170  SLPC      C212          -28.3953608787      -27.5266562473       -5.2112740890  MEMB      170             0.0000000000
     19675       170  SLPC      H12R          -28.3761325529      -28.4095473445       -5.8671204844  MEMB      170             0.0000000000
     19676       170  SLPC      C213          -28.0164229398      -27.5620305721       -3.9017782412  MEMB      170             0.0000000000
     19677       170  SLPC      H13R          -27.4477911421      -28.4726999198       -3.6623222693  MEMB      170             0.0000000000
     19678       170  SLPC      C214          -27.9843075849      -26.4946165263       -2.8584847261  MEMB      170             0.0000000000
     19679       170  SLPC      H14R          -28.3138520563      -25.5600209485       -3.3607323181  MEMB      170             0.0000000000
     19680       170  SLPC      H14S          -26.9796212296      -26.3529281523       -2.4058803230  MEMB      170             0.0000000000
     19681       170  SLPC      C215          -28.8780309543      -26.7886134725       -1.6738449787  MEMB      170             0.0000000000
     19682       170  SLPC      H15R          -28.5548324765      -27.7616419306       -1.2459680730  MEMB      170             0.0000000000
     19683       170  SLPC      H15S          -29.9805271719      -26.8023056145       -1.8103561918  MEMB      170             0.0000000000
     19684       170  SLPC      C216          -28.6595040863      -25.8070918801       -0.5457414680  MEMB      170             0.0000000000
     19685       170  SLPC      H16R          -27.6132330752      -25.5026993778       -0.3289856196  MEMB      170             0.0000000000
     19686       170  SLPC      H16S          -29.0575306928      -26.2600494111        0.3873864471  MEMB      170             0.0000000000
     19687       170  SLPC      C217          -29.3511828688      -24.4619492376       -0.7980789851  MEMB      170             0.0000000000
     19688       170  SLPC      H17R          -30.3890194111      -24.8204563783       -0.9674566993  MEMB      170             0.0000000000
     19689       170  SLPC      H17S          -28.8435482486      -23.9518137811       -1.6444773848  MEMB      170             0.0000000000
     19690       170  SLPC      C218          -29.3345451866      -23.5602927196        0.4306681882  MEMB      170             0.0000000000
     19691       170  SLPC      H18R          -29.7436650799      -24.0619759051        1.3335832202  MEMB      170             0.0000000000
     19692       170  SLPC      H18S          -29.9853383225      -22.6689897342        0.3027315712  MEMB      170             0.0000000000
     19693       170  SLPC      H18T          -28.2806113537      -23.2331882284        0.5593031047  MEMB      170             0.0000000000
     19694       170  SLPC      C33           -27.2623514277      -31.8467230905      -12.3401982717  MEMB      170             0.0000000000
     19695       170  SLPC      H3X           -26.2674962382      -31.6493457494      -12.7936592718  MEMB      170             0.0000000000
     19696       170  SLPC      H3Y           -27.8923370699      -32.6728718159      -12.7337937886  MEMB      170             0.0000000000
     19697       170  SLPC      C34           -27.0950990389      -32.0351049789      -10.7821212379  MEMB      170             0.0000000000
     19698       170  SLPC      H4X           -26.6731812140      -33.0434470790      -10.5832426202  MEMB      170             0.0000000000
     19699       170  SLPC      H4Y           -28.0866416576      -31.8374728955      -10.3215711810  MEMB      170             0.0000000000
     19700       170  SLPC      C35           -25.9612396266      -31.1113391296      -10.1911768649  MEMB      170             0.0000000000
     19701       170  SLPC      H5X           -25.9879062116      -30.1727105803      -10.7849667641  MEMB      170             0.0000000000
     19702       170  SLPC      H5Y           -24.9512660944      -31.5262404295      -10.3964367347  MEMB      170             0.0000000000
     19703       170  SLPC      C36           -26.1637575733      -30.9475930485       -8.7203003458  MEMB      170             0.0000000000
     19704       170  SLPC      H6X           -26.1452028074      -31.9649913180       -8.2743443147  MEMB      170             0.0000000000
     19705       170  SLPC      H6Y           -27.1813904209      -30.5178957970       -8.6015380012  MEMB      170             0.0000000000
     19706       170  SLPC      C37           -25.1885815369      -30.0522040027       -7.9570577503  MEMB      170             0.0000000000
     19707       170  SLPC      H7X           -25.4908452497      -29.9895024890       -6.8898056366  MEMB      170             0.0000000000
     19708       170  SLPC      H7Y           -25.0392641804      -29.0851016228       -8.4831160572  MEMB      170             0.0000000000
     19709       170  SLPC      C38           -23.7255171968      -30.6030160816       -7.9639159622  MEMB      170             0.0000000000
     19710       170  SLPC      H8X           -23.5278441992      -31.1989076503       -8.8805176304  MEMB      170             0.0000000000
     19711       170  SLPC      H8Y           -23.7205851139      -31.3432973220       -7.1354955509  MEMB      170             0.0000000000
     19712       170  SLPC      C39           -22.5058582172      -29.5863083562       -7.7218244965  MEMB      170             0.0000000000
     19713       170  SLPC      H9X           -22.4197885566      -28.8265140644       -8.5278177562  MEMB      170             0.0000000000
     19714       170  SLPC      H9Y           -21.5985727758      -30.2271952880       -7.7013736883  MEMB      170             0.0000000000
     19715       170  SLPC      C310          -22.5608310551      -29.0921012299       -6.2969254553  MEMB      170             0.0000000000
     19716       170  SLPC      H10X          -21.5555442441      -28.6725105697       -6.0786074333  MEMB      170             0.0000000000
     19717       170  SLPC      H10Y          -22.9139117938      -29.8969558733       -5.6173193850  MEMB      170             0.0000000000
     19718       170  SLPC      C311          -23.5104745198      -27.8396632107       -6.2229447307  MEMB      170             0.0000000000
     19719       170  SLPC      H11X          -24.5382592850      -28.1499879691       -6.5087380576  MEMB      170             0.0000000000
     19720       170  SLPC      H11Y          -23.1102066716      -27.0278986804       -6.8672622715  MEMB      170             0.0000000000
     19721       170  SLPC      C312          -23.5637746432      -27.3045170303       -4.8160075180  MEMB      170             0.0000000000
     19722       170  SLPC      H12X          -24.1758548933      -26.3794418371       -4.8785728564  MEMB      170             0.0000000000
     19723       170  SLPC      H12Y          -22.5676848709      -26.9423517726       -4.4828983126  MEMB      170             0.0000000000
     19724       170  SLPC      C313          -24.1445069355      -28.2856748299       -3.8730596229  MEMB      170             0.0000000000
     19725       170  SLPC      H13X          -23.5140236954      -29.1874034588       -3.7191197422  MEMB      170             0.0000000000
     19726       170  SLPC      H13Y          -25.1675056762      -28.5395005390       -4.2242960625  MEMB      170             0.0000000000
     19727       170  SLPC      C314          -24.3116924331      -27.6080167554       -2.5451543566  MEMB      170             0.0000000000
     19728       170  SLPC      H14X          -24.8800240315      -26.6552464643       -2.6047293882  MEMB      170             0.0000000000
     19729       170  SLPC      H14Y          -23.2932137569      -27.4617247919       -2.1260830610  MEMB      170             0.0000000000
     19730       170  SLPC      C315          -25.0482865076      -28.4362889011       -1.5464739190  MEMB      170             0.0000000000
     19731       170  SLPC      H15X          -24.5419359626      -29.4080713738       -1.3632551749  MEMB      170             0.0000000000
     19732       170  SLPC      H15Y          -26.0384280687      -28.7410271920       -1.9478159348  MEMB      170             0.0000000000
     19733       170  SLPC      C316          -25.2230615744      -27.6995512601       -0.2184989379  MEMB      170             0.0000000000
     19734       170  SLPC      H16X          -25.6455597993      -26.7105656061       -0.4972884206  MEMB      170             0.0000000000
     19735       170  SLPC      H16Y          -24.2430714286      -27.4787639674        0.2560459223  MEMB      170             0.0000000000
     19736       170  SLPC      C317          -26.1853130082      -28.2326282798        0.8079415434  MEMB      170             0.0000000000
     19737       170  SLPC      H17X          -26.2798949299      -29.3395336169        0.7962766415  MEMB      170             0.0000000000
     19738       170  SLPC      H17Y          -27.2012480861      -27.8120245140        0.6489148222  MEMB      170             0.0000000000
     19739       170  SLPC      C318          -25.8464761345      -27.9867971752        2.2976355709  MEMB      170             0.0000000000
     19740       170  SLPC      H18X          -26.1301496593      -26.9515221285        2.5840888799  MEMB      170             0.0000000000
     19741       170  SLPC      H18Y          -24.7874646937      -28.2604078832        2.4924506175  MEMB      170             0.0000000000
     19742       170  SLPC      H18Z          -26.5891973393      -28.5936143686        2.8584025161  MEMB      170             0.0000000000
     19743       171  SAPC      N             -11.4802337371      -33.6148701453      -20.3248865346  MEMB      171             0.0000000000
     19744       171  SAPC      C12           -11.2411885384      -34.7974530750      -21.1763408600  MEMB      171             0.0000000000
     19745       171  SAPC      H12A          -10.6501199600      -34.4538633431      -22.0123934669  MEMB      171             0.0000000000
     19746       171  SAPC      H12B          -12.1498987376      -35.1591055967      -21.6344382736  MEMB      171             0.0000000000
     19747       171  SAPC      C13           -11.6548435374      -33.9527061530      -18.8920867423  MEMB      171             0.0000000000
     19748       171  SAPC      H13A          -10.7007139990      -34.1277864388      -18.4173407876  MEMB      171             0.0000000000
     19749       171  SAPC      H13B          -12.0091346005      -33.0751757245      -18.3716845471  MEMB      171             0.0000000000
     19750       171  SAPC      H13C          -12.3259955460      -34.7899108868      -18.7694365755  MEMB      171             0.0000000000
     19751       171  SAPC      C14           -10.3959690752      -32.5225323552      -20.5070092200  MEMB      171             0.0000000000
     19752       171  SAPC      H14A          -10.6568881346      -31.6645463023      -19.9051944136  MEMB      171             0.0000000000
     19753       171  SAPC      H14B           -9.4879718156      -32.9914786034      -20.1576809106  MEMB      171             0.0000000000
     19754       171  SAPC      H14C          -10.3178527351      -32.2720624886      -21.5546554738  MEMB      171             0.0000000000
     19755       171  SAPC      C15           -12.6761335039      -32.8894607681      -20.8924184897  MEMB      171             0.0000000000
     19756       171  SAPC      H15A          -12.7984224521      -32.7235437204      -21.9525680397  MEMB      171             0.0000000000
     19757       171  SAPC      H15B          -13.5524152180      -33.4552522877      -20.6123993779  MEMB      171             0.0000000000
     19758       171  SAPC      H15C          -12.6061693639      -31.9040607365      -20.4559653240  MEMB      171             0.0000000000
     19759       171  SAPC      C11           -10.5349356310      -36.0065070933      -20.6257964963  MEMB      171             0.0000000000
     19760       171  SAPC      H11A          -10.3009453568      -36.5051471245      -21.5906424135  MEMB      171             0.0000000000
     19761       171  SAPC      H11B          -11.2479591044      -36.6829106378      -20.1077261892  MEMB      171             0.0000000000
     19762       171  SAPC      P              -8.4458297030      -36.9562254499      -19.5713871449  MEMB      171             0.0000000000
     19763       171  SAPC      O13            -9.3711200119      -38.1160683122      -19.2691409366  MEMB      171             0.0000000000
     19764       171  SAPC      O14            -7.4490770054      -37.0951555725      -20.6219392301  MEMB      171             0.0000000000
     19765       171  SAPC      O12            -9.3241363204      -35.7238888598      -19.8825706390  MEMB      171             0.0000000000
     19766       171  SAPC      O11            -7.7131236347      -36.4734587110      -18.2364237021  MEMB      171             0.0000000000
     19767       171  SAPC      C1             -8.2717144832      -35.5707980901      -17.3016724473  MEMB      171             0.0000000000
     19768       171  SAPC      HA             -8.0282675064      -34.5357423363      -17.6237191560  MEMB      171             0.0000000000
     19769       171  SAPC      HB             -9.3730380454      -35.6680635828      -17.1923705778  MEMB      171             0.0000000000
     19770       171  SAPC      C2             -7.7270975919      -35.8604289978      -15.8713413519  MEMB      171             0.0000000000
     19771       171  SAPC      HS             -6.6455604955      -35.6222454714      -15.9600391090  MEMB      171             0.0000000000
     19772       171  SAPC      O21            -7.9079435544      -37.2744213998      -15.7121752848  MEMB      171             0.0000000000
     19773       171  SAPC      C21            -7.0929470578      -37.8664926657      -14.8503530885  MEMB      171             0.0000000000
     19774       171  SAPC      O22            -6.1753695095      -37.4109580004      -14.2091445144  MEMB      171             0.0000000000
     19775       171  SAPC      C22            -7.4985702505      -39.3599468083      -14.8026939212  MEMB      171             0.0000000000
     19776       171  SAPC      H2R            -7.7328792257      -39.6406206635      -15.8518089255  MEMB      171             0.0000000000
     19777       171  SAPC      H2S            -6.7175473048      -40.0032107881      -14.3438523162  MEMB      171             0.0000000000
     19778       171  SAPC      C3             -8.3279847708      -35.0839592168      -14.7256787096  MEMB      171             0.0000000000
     19779       171  SAPC      HX             -8.1049059322      -34.0315646425      -15.0032080476  MEMB      171             0.0000000000
     19780       171  SAPC      HY             -7.7769447212      -35.3834904943      -13.8086418075  MEMB      171             0.0000000000
     19781       171  SAPC      O31            -9.7519051974      -35.3860251062      -14.6576168612  MEMB      171             0.0000000000
     19782       171  SAPC      C31           -10.2994859677      -34.6659517151      -13.7619655977  MEMB      171             0.0000000000
     19783       171  SAPC      O32            -9.7687647964      -33.8561855140      -13.0340188199  MEMB      171             0.0000000000
     19784       171  SAPC      C32           -11.8925220681      -34.9214398837      -13.6511043027  MEMB      171             0.0000000000
     19785       171  SAPC      H2X           -12.4679458097      -34.9467664351      -14.6011392549  MEMB      171             0.0000000000
     19786       171  SAPC      H2Y           -12.2963377531      -34.0525052541      -13.0887818251  MEMB      171             0.0000000000
     19787       171  SAPC      C23            -8.7873707082      -39.6924633603      -14.1231733337  MEMB      171             0.0000000000
     19788       171  SAPC      H3R            -9.0233981953      -40.7494449313      -14.3709664822  MEMB      171             0.0000000000
     19789       171  SAPC      H3S            -9.6388414911      -39.0243471812      -14.3740506297  MEMB      171             0.0000000000
     19790       171  SAPC      C24            -8.6391403705      -39.8662497638      -12.6207164268  MEMB      171             0.0000000000
     19791       171  SAPC      H4R            -7.6421049641      -40.2050951071      -12.2665626234  MEMB      171             0.0000000000
     19792       171  SAPC      H4S            -9.2593196030      -40.6025336343      -12.0661139117  MEMB      171             0.0000000000
     19793       171  SAPC      C25            -9.0886332993      -38.5835472720      -11.8933496357  MEMB      171             0.0000000000
     19794       171  SAPC      H5R           -10.0693436836      -38.1687008323      -12.1692286334  MEMB      171             0.0000000000
     19795       171  SAPC      C26            -8.3165425403      -37.8680073069      -11.0853075274  MEMB      171             0.0000000000
     19796       171  SAPC      H6R            -8.7941327992      -36.9177873332      -10.8042572224  MEMB      171             0.0000000000
     19797       171  SAPC      C27            -6.9180024850      -37.9264667129      -10.5707986646  MEMB      171             0.0000000000
     19798       171  SAPC      H7R            -6.2344290090      -37.3896036706      -11.2627710961  MEMB      171             0.0000000000
     19799       171  SAPC      H7S            -6.6188478597      -38.9964134803      -10.5772277525  MEMB      171             0.0000000000
     19800       171  SAPC      C28            -6.8606916458      -37.4296221611       -9.1264562868  MEMB      171             0.0000000000
     19801       171  SAPC      H8R            -7.4127497922      -37.9828254683       -8.3523776891  MEMB      171             0.0000000000
     19802       171  SAPC      C29            -6.6214564919      -36.1783688620       -8.7082812408  MEMB      171             0.0000000000
     19803       171  SAPC      H9R            -6.6948897847      -36.0508250368       -7.6181705418  MEMB      171             0.0000000000
     19804       171  SAPC      C210           -6.2526608288      -34.9220311664       -9.5275790847  MEMB      171             0.0000000000
     19805       171  SAPC      H10R           -5.7758978946      -35.2641660556      -10.4709572279  MEMB      171             0.0000000000
     19806       171  SAPC      H10S           -5.4229641073      -34.4777864312       -8.9371801258  MEMB      171             0.0000000000
     19807       171  SAPC      C211           -7.2706817560      -33.8189603590       -9.7960092890  MEMB      171             0.0000000000
     19808       171  SAPC      H11R           -6.9209041599      -33.1753543760      -10.6166359098  MEMB      171             0.0000000000
     19809       171  SAPC      C212           -8.3193195704      -33.2916938613       -9.1490698718  MEMB      171             0.0000000000
     19810       171  SAPC      H12R           -8.9399739557      -32.5857577927       -9.7204211694  MEMB      171             0.0000000000
     19811       171  SAPC      C213           -8.8360131005      -33.7036765521       -7.7796519177  MEMB      171             0.0000000000
     19812       171  SAPC      H13R           -9.1822116883      -32.7655993910       -7.2954218512  MEMB      171             0.0000000000
     19813       171  SAPC      H13S           -8.0852223587      -34.2389943696       -7.1599190070  MEMB      171             0.0000000000
     19814       171  SAPC      C214          -10.1395599841      -34.4900793223       -7.8799522025  MEMB      171             0.0000000000
     19815       171  SAPC      H14R          -10.3555470728      -35.0426730597       -8.8062296479  MEMB      171             0.0000000000
     19816       171  SAPC      C215          -11.1211183526      -34.5928329427       -6.9112808523  MEMB      171             0.0000000000
     19817       171  SAPC      H15R          -12.0406066709      -35.1021116657       -7.2355902183  MEMB      171             0.0000000000
     19818       171  SAPC      C216          -11.0083851560      -33.8961177554       -5.5298419706  MEMB      171             0.0000000000
     19819       171  SAPC      H16R          -10.1936920207      -33.1407420926       -5.5279168562  MEMB      171             0.0000000000
     19820       171  SAPC      H16S          -10.8689419633      -34.6891268383       -4.7643271889  MEMB      171             0.0000000000
     19821       171  SAPC      C217          -12.3182393910      -33.2596728842       -5.2473208265  MEMB      171             0.0000000000
     19822       171  SAPC      H17R          -13.1367687225      -34.0108922285       -5.2475867447  MEMB      171             0.0000000000
     19823       171  SAPC      H17S          -12.4765745351      -32.5924769257       -6.1214490338  MEMB      171             0.0000000000
     19824       171  SAPC      C218          -12.3369066781      -32.3962893535       -4.0288129916  MEMB      171             0.0000000000
     19825       171  SAPC      H18R          -13.2374464023      -31.7810328357       -3.8171338348  MEMB      171             0.0000000000
     19826       171  SAPC      H18S          -11.5587175278      -31.6119780655       -4.1454215348  MEMB      171             0.0000000000
     19827       171  SAPC      C219          -11.9256398152      -33.2156301277       -2.7354035989  MEMB      171             0.0000000000
     19828       171  SAPC      H19R          -11.6937698863      -32.5499938512       -1.8766332151  MEMB      171             0.0000000000
     19829       171  SAPC      H19S          -10.9122261462      -33.6037121844       -2.9735334324  MEMB      171             0.0000000000
     19830       171  SAPC      C220          -12.8968975072      -34.3452614561       -2.3678932923  MEMB      171             0.0000000000
     19831       171  SAPC      H20R          -13.8131260993      -33.7724462369       -2.1095747141  MEMB      171             0.0000000000
     19832       171  SAPC      H20S          -12.3826388500      -34.8307264502       -1.5110496490  MEMB      171             0.0000000000
     19833       171  SAPC      H20T          -13.1937732782      -35.0181001098       -3.2006442519  MEMB      171             0.0000000000
     19834       171  SAPC      C33           -12.0313729520      -36.0961617874      -12.7601841170  MEMB      171             0.0000000000
     19835       171  SAPC      H3X           -11.3913088573      -35.8821891982      -11.8776566854  MEMB      171             0.0000000000
     19836       171  SAPC      H3Y           -11.6382404110      -36.9900738882      -13.2899852761  MEMB      171             0.0000000000
     19837       171  SAPC      C34           -13.4461777009      -36.3883703631      -12.1822358719  MEMB      171             0.0000000000
     19838       171  SAPC      H4X           -14.0309462161      -36.7683913251      -13.0470773079  MEMB      171             0.0000000000
     19839       171  SAPC      H4Y           -13.8157104600      -35.3856519802      -11.8783894671  MEMB      171             0.0000000000
     19840       171  SAPC      C35           -13.5386242291      -37.3647070542      -11.0573564060  MEMB      171             0.0000000000
     19841       171  SAPC      H5X           -13.3807014854      -38.3111808002      -11.6173285280  MEMB      171             0.0000000000
     19842       171  SAPC      H5Y           -14.5774691336      -37.3122564641      -10.6670097169  MEMB      171             0.0000000000
     19843       171  SAPC      C36           -12.6325650071      -37.3319210302       -9.8246987616  MEMB      171             0.0000000000
     19844       171  SAPC      H6X           -13.1342681951      -36.5030551790       -9.2810114464  MEMB      171             0.0000000000
     19845       171  SAPC      H6Y           -11.5884306448      -37.0433630477      -10.0713537071  MEMB      171             0.0000000000
     19846       171  SAPC      C37           -12.7269550903      -38.6681667431       -8.9475181553  MEMB      171             0.0000000000
     19847       171  SAPC      H7X           -12.3646138854      -39.5641821021       -9.4954106277  MEMB      171             0.0000000000
     19848       171  SAPC      H7Y           -13.8226978872      -38.8022673937       -8.8222761873  MEMB      171             0.0000000000
     19849       171  SAPC      C38           -12.0766180716      -38.6235159725       -7.5073062965  MEMB      171             0.0000000000
     19850       171  SAPC      H8X           -12.2677756364      -39.5636603265       -6.9470310298  MEMB      171             0.0000000000
     19851       171  SAPC      H8Y           -12.6238480825      -37.8133592296       -6.9795686651  MEMB      171             0.0000000000
     19852       171  SAPC      C39           -10.5495499320      -38.2859353644       -7.4347548247  MEMB      171             0.0000000000
     19853       171  SAPC      H9X           -10.4227630602      -37.2897713069       -7.9100470461  MEMB      171             0.0000000000
     19854       171  SAPC      H9Y           -10.0019411992      -39.1106537315       -7.9390219251  MEMB      171             0.0000000000
     19855       171  SAPC      C310          -10.0834712978      -38.1002207653       -5.9726954722  MEMB      171             0.0000000000
     19856       171  SAPC      H10X          -10.3967545567      -39.0198750273       -5.4337979362  MEMB      171             0.0000000000
     19857       171  SAPC      H10Y          -10.5567968277      -37.3537980222       -5.2995413678  MEMB      171             0.0000000000
     19858       171  SAPC      C311           -8.5191267960      -38.1025315924       -5.8172949584  MEMB      171             0.0000000000
     19859       171  SAPC      H11X           -8.0454890887      -37.2353546219       -6.3252250941  MEMB      171             0.0000000000
     19860       171  SAPC      H11Y           -8.0185135962      -38.9756031501       -6.2878837750  MEMB      171             0.0000000000
     19861       171  SAPC      C312           -8.0497825903      -38.2633498635       -4.3329986638  MEMB      171             0.0000000000
     19862       171  SAPC      H12X           -6.9442551425      -38.2256060536       -4.2295323875  MEMB      171             0.0000000000
     19863       171  SAPC      H12Y           -8.3560174328      -39.3042058797       -4.0939176926  MEMB      171             0.0000000000
     19864       171  SAPC      C313           -8.7312581449      -37.3091765261       -3.2704855038  MEMB      171             0.0000000000
     19865       171  SAPC      H13X           -8.6065384052      -37.8820837793       -2.3267994776  MEMB      171             0.0000000000
     19866       171  SAPC      H13Y           -9.8191094229      -37.1617305150       -3.4412479854  MEMB      171             0.0000000000
     19867       171  SAPC      C314           -7.9064911547      -36.0003209094       -3.2912930032  MEMB      171             0.0000000000
     19868       171  SAPC      H14X           -7.9432130168      -35.5689379051       -4.3144654760  MEMB      171             0.0000000000
     19869       171  SAPC      H14Y           -6.8483510878      -36.2918740445       -3.1190790703  MEMB      171             0.0000000000
     19870       171  SAPC      C315           -8.3891596861      -35.0725921424       -2.1501563500  MEMB      171             0.0000000000
     19871       171  SAPC      H15X           -9.4677215163      -34.8904273322       -2.3446857496  MEMB      171             0.0000000000
     19872       171  SAPC      H15Y           -7.8438401860      -34.1251998493       -2.3486390359  MEMB      171             0.0000000000
     19873       171  SAPC      C316           -8.1548838853      -35.6680701814       -0.7263992590  MEMB      171             0.0000000000
     19874       171  SAPC      H16X           -7.7607052802      -34.8561962138       -0.0784764675  MEMB      171             0.0000000000
     19875       171  SAPC      H16Y           -7.3531034896      -36.4371004487       -0.7185340921  MEMB      171             0.0000000000
     19876       171  SAPC      C317           -9.3506363966      -36.2978202044       -0.0295241639  MEMB      171             0.0000000000
     19877       171  SAPC      H17X           -9.9812031187      -36.9334255185       -0.6873329689  MEMB      171             0.0000000000
     19878       171  SAPC      H17Y          -10.0499692644      -35.4844751364        0.2598269379  MEMB      171             0.0000000000
     19879       171  SAPC      C318           -8.9526246747      -37.0007845834        1.2542740423  MEMB      171             0.0000000000
     19880       171  SAPC      H18X           -8.2573360569      -36.3290439036        1.8016866277  MEMB      171             0.0000000000
     19881       171  SAPC      H18Y           -8.4605706847      -37.9831275683        1.0893317827  MEMB      171             0.0000000000
     19882       171  SAPC      H18Z           -9.7692814458      -37.1565908485        1.9912389782  MEMB      171             0.0000000000
     19883       172  SLPC      N              34.2995772533       -5.2494293391      -17.4024444105  MEMB      172             0.0000000000
     19884       172  SLPC      C13            32.8640575830       -5.1734229803      -17.8452465560  MEMB      172             0.0000000000
     19885       172  SLPC      H13A           32.6871840488       -4.5782829193      -18.7289456547  MEMB      172             0.0000000000
     19886       172  SLPC      H13B           32.4988586743       -6.1496995927      -18.1279368764  MEMB      172             0.0000000000
     19887       172  SLPC      H13C           32.2112044632       -4.8189921182      -17.0613067617  MEMB      172             0.0000000000
     19888       172  SLPC      C14            34.8961822039       -5.8385076620      -18.6238056728  MEMB      172             0.0000000000
     19889       172  SLPC      H14A           34.6527565643       -6.8903754888      -18.6505927977  MEMB      172             0.0000000000
     19890       172  SLPC      H14B           34.5764175773       -5.3616749666      -19.5385631650  MEMB      172             0.0000000000
     19891       172  SLPC      H14C           35.9747690263       -5.8635900552      -18.5745969653  MEMB      172             0.0000000000
     19892       172  SLPC      C15            34.5164516929       -6.1143033019      -16.1976981839  MEMB      172             0.0000000000
     19893       172  SLPC      H15A           33.8328901156       -5.8375038259      -15.4086953421  MEMB      172             0.0000000000
     19894       172  SLPC      H15B           34.2228534092       -7.1285457031      -16.4246623844  MEMB      172             0.0000000000
     19895       172  SLPC      H15C           35.5219970293       -6.0050216833      -15.8191006161  MEMB      172             0.0000000000
     19896       172  SLPC      C12            34.8440925204       -3.7866397678      -17.2906365795  MEMB      172             0.0000000000
     19897       172  SLPC      H12A           34.4780378248       -3.4593271933      -16.3287268085  MEMB      172             0.0000000000
     19898       172  SLPC      H12B           34.1860150218       -3.2778788619      -17.9794735412  MEMB      172             0.0000000000
     19899       172  SLPC      C11            36.3232206779       -3.4427280984      -17.4775556355  MEMB      172             0.0000000000
     19900       172  SLPC      H11A           36.5037578386       -2.3900473175      -17.1716298298  MEMB      172             0.0000000000
     19901       172  SLPC      H11B           36.6328653081       -3.5869518621      -18.5347409516  MEMB      172             0.0000000000
     19902       172  SLPC      P              38.6683976846       -4.0291401236      -16.5118038193  MEMB      172             0.0000000000
     19903       172  SLPC      O13            39.2947666627       -5.3572616237      -16.4568465486  MEMB      172             0.0000000000
     19904       172  SLPC      O14            39.1915018527       -2.9307698032      -17.3539750123  MEMB      172             0.0000000000
     19905       172  SLPC      O12            37.0979606377       -4.3476421101      -16.7696620071  MEMB      172             0.0000000000
     19906       172  SLPC      O11            38.5694908301       -3.3963314252      -15.0703256114  MEMB      172             0.0000000000
     19907       172  SLPC      C1             39.3937273049       -3.6667414749      -13.9652763224  MEMB      172             0.0000000000
     19908       172  SLPC      HA             40.4868722423       -3.5738616231      -14.1405721983  MEMB      172             0.0000000000
     19909       172  SLPC      HB             39.1204054205       -2.8527463798      -13.2602740507  MEMB      172             0.0000000000
     19910       172  SLPC      C2             38.8884934154       -4.9563576877      -13.2236484509  MEMB      172             0.0000000000
     19911       172  SLPC      HS             39.4627836431       -5.8464778495      -13.5586080371  MEMB      172             0.0000000000
     19912       172  SLPC      O21            37.4750843852       -5.1481261516      -13.4352351513  MEMB      172             0.0000000000
     19913       172  SLPC      C21            36.9765243682       -6.3298134452      -13.1612664710  MEMB      172             0.0000000000
     19914       172  SLPC      O22            37.5820532074       -7.3062922395      -12.8267200994  MEMB      172             0.0000000000
     19915       172  SLPC      C22            35.4811728978       -6.2224065943      -13.1338954838  MEMB      172             0.0000000000
     19916       172  SLPC      H2R            35.1026520449       -5.3585226264      -13.7210475671  MEMB      172             0.0000000000
     19917       172  SLPC      H2S            35.0344613462       -7.1371326447      -13.5789191492  MEMB      172             0.0000000000
     19918       172  SLPC      C3             39.1997338756       -4.7995574782      -11.7156295115  MEMB      172             0.0000000000
     19919       172  SLPC      HX             40.2626703014       -4.4770229976      -11.6942120791  MEMB      172             0.0000000000
     19920       172  SLPC      HY             39.1363394226       -5.7501508063      -11.1440750973  MEMB      172             0.0000000000
     19921       172  SLPC      O31            38.3440669835       -3.9255713033      -10.9905709433  MEMB      172             0.0000000000
     19922       172  SLPC      C31            38.7227843816       -3.4400334156       -9.7535972718  MEMB      172             0.0000000000
     19923       172  SLPC      O32            39.7995919664       -3.6366750622       -9.2050676568  MEMB      172             0.0000000000
     19924       172  SLPC      C32            37.7024870197       -2.4234470497       -9.2435961419  MEMB      172             0.0000000000
     19925       172  SLPC      H2X            36.7156855969       -2.6187816840       -9.7151765587  MEMB      172             0.0000000000
     19926       172  SLPC      H2Y            38.0052579100       -1.3852181360       -9.4980194176  MEMB      172             0.0000000000
     19927       172  SLPC      C23            35.0208294407       -6.0183327015      -11.7124496647  MEMB      172             0.0000000000
     19928       172  SLPC      H3R            35.5620497628       -5.1003487995      -11.3982731432  MEMB      172             0.0000000000
     19929       172  SLPC      H3S            35.4134648411       -6.8255216167      -11.0577708710  MEMB      172             0.0000000000
     19930       172  SLPC      C24            33.4794266285       -5.8289911318      -11.4660645296  MEMB      172             0.0000000000
     19931       172  SLPC      H4R            33.0595911152       -6.8487939503      -11.6004565833  MEMB      172             0.0000000000
     19932       172  SLPC      H4S            32.9074145031       -5.2511992029      -12.2232167606  MEMB      172             0.0000000000
     19933       172  SLPC      C25            33.0605728499       -5.2002762414      -10.0376633820  MEMB      172             0.0000000000
     19934       172  SLPC      H5R            32.0388328149       -5.5189566602       -9.7396521005  MEMB      172             0.0000000000
     19935       172  SLPC      H5S            32.9975298942       -4.0923342103      -10.0906835883  MEMB      172             0.0000000000
     19936       172  SLPC      C26            33.8503839896       -5.7073577271       -8.8030125287  MEMB      172             0.0000000000
     19937       172  SLPC      H6R            34.9393962809       -5.6419109030       -9.0129889493  MEMB      172             0.0000000000
     19938       172  SLPC      H6S            33.7523779600       -6.7903627703       -8.5753813062  MEMB      172             0.0000000000
     19939       172  SLPC      C27            33.3940636497       -4.9495645453       -7.5480103992  MEMB      172             0.0000000000
     19940       172  SLPC      H7R            32.2843675781       -4.9988828951       -7.5264822665  MEMB      172             0.0000000000
     19941       172  SLPC      H7S            33.6927728031       -3.8867963890       -7.4230394260  MEMB      172             0.0000000000
     19942       172  SLPC      C28            34.0639312166       -5.4420969513       -6.2729651223  MEMB      172             0.0000000000
     19943       172  SLPC      H8R            33.5254720115       -4.8978940161       -5.4678406897  MEMB      172             0.0000000000
     19944       172  SLPC      H8S            35.1057039283       -5.0644689818       -6.1927917404  MEMB      172             0.0000000000
     19945       172  SLPC      C29            33.9224692993       -6.8982290790       -5.8527147169  MEMB      172             0.0000000000
     19946       172  SLPC      H9R            32.9456029612       -7.3935277656       -5.7506751032  MEMB      172             0.0000000000
     19947       172  SLPC      C210           35.0304354055       -7.6488302709       -5.8330878456  MEMB      172             0.0000000000
     19948       172  SLPC      H10R           34.8970802282       -8.6714892960       -5.4504845307  MEMB      172             0.0000000000
     19949       172  SLPC      C211           36.4843061040       -7.3478599301       -6.1169752994  MEMB      172             0.0000000000
     19950       172  SLPC      H11R           36.7298800464       -6.2974593860       -6.3828198083  MEMB      172             0.0000000000
     19951       172  SLPC      H11S           36.5504190259       -7.7812067126       -7.1378379345  MEMB      172             0.0000000000
     19952       172  SLPC      C212           37.5678501696       -7.9171868616       -5.2423187953  MEMB      172             0.0000000000
     19953       172  SLPC      H12R           37.5341209498       -9.0153199596       -5.2967833434  MEMB      172             0.0000000000
     19954       172  SLPC      C213           38.5289619522       -7.3081043485       -4.5325234451  MEMB      172             0.0000000000
     19955       172  SLPC      H13R           39.0877274390       -7.9226865816       -3.8113653069  MEMB      172             0.0000000000
     19956       172  SLPC      C214           38.8731105825       -5.8542898835       -4.4416481925  MEMB      172             0.0000000000
     19957       172  SLPC      H14R           38.3441814440       -5.2373941615       -5.1992726403  MEMB      172             0.0000000000
     19958       172  SLPC      H14S           39.9636064647       -5.7127732131       -4.6001172185  MEMB      172             0.0000000000
     19959       172  SLPC      C215           38.3935373777       -5.0819363763       -3.2584861687  MEMB      172             0.0000000000
     19960       172  SLPC      H15R           38.6484966943       -4.0102948308       -3.4030590571  MEMB      172             0.0000000000
     19961       172  SLPC      H15S           38.9479811260       -5.3987730283       -2.3493505785  MEMB      172             0.0000000000
     19962       172  SLPC      C216           36.9114050027       -5.1918133428       -2.9842804927  MEMB      172             0.0000000000
     19963       172  SLPC      H16R           36.7047287702       -6.1549411638       -2.4704796573  MEMB      172             0.0000000000
     19964       172  SLPC      H16S           36.3731614536       -5.0985523207       -3.9517088145  MEMB      172             0.0000000000
     19965       172  SLPC      C217           36.4724600343       -4.1438889999       -1.9220477666  MEMB      172             0.0000000000
     19966       172  SLPC      H17R           36.8901975759       -3.1512255341       -2.1948764228  MEMB      172             0.0000000000
     19967       172  SLPC      H17S           36.9148186627       -4.4308897945       -0.9441572955  MEMB      172             0.0000000000
     19968       172  SLPC      C218           34.9838775729       -3.9534001730       -1.8545446131  MEMB      172             0.0000000000
     19969       172  SLPC      H18R           34.5092011382       -4.8701738196       -1.4440215671  MEMB      172             0.0000000000
     19970       172  SLPC      H18S           34.4732476419       -3.6904841165       -2.8055717438  MEMB      172             0.0000000000
     19971       172  SLPC      H18T           34.7162413914       -3.2240143201       -1.0603853978  MEMB      172             0.0000000000
     19972       172  SLPC      C33            37.3364495811       -2.4878765835       -7.7638330690  MEMB      172             0.0000000000
     19973       172  SLPC      H3X            38.0586195540       -1.8784108153       -7.1795873519  MEMB      172             0.0000000000
     19974       172  SLPC      H3Y            37.2408178970       -3.5719056781       -7.5400999366  MEMB      172             0.0000000000
     19975       172  SLPC      C34            36.0369127562       -1.7995705279       -7.3276833512  MEMB      172             0.0000000000
     19976       172  SLPC      H4X            35.1381726947       -2.0911984791       -7.9120981819  MEMB      172             0.0000000000
     19977       172  SLPC      H4Y            36.1386833794       -0.7044122134       -7.4845014174  MEMB      172             0.0000000000
     19978       172  SLPC      C35            35.9018819055       -1.9999507841       -5.8216102458  MEMB      172             0.0000000000
     19979       172  SLPC      H5X            36.9219442496       -2.0767284117       -5.3881372199  MEMB      172             0.0000000000
     19980       172  SLPC      H5Y            35.3551606843       -2.9377099616       -5.5849150520  MEMB      172             0.0000000000
     19981       172  SLPC      C36            35.2281475498       -0.8059017719       -5.2314079785  MEMB      172             0.0000000000
     19982       172  SLPC      H6X            34.3662520717       -0.4563827360       -5.8391037304  MEMB      172             0.0000000000
     19983       172  SLPC      H6Y            35.8699362361        0.0837697809       -5.0555873077  MEMB      172             0.0000000000
     19984       172  SLPC      C37            34.5890446775       -1.1933867896       -3.9043363001  MEMB      172             0.0000000000
     19985       172  SLPC      H7X            35.3629323662       -1.6008550330       -3.2192170189  MEMB      172             0.0000000000
     19986       172  SLPC      H7Y            33.8113495788       -1.9707648116       -4.0630648084  MEMB      172             0.0000000000
     19987       172  SLPC      C38            33.7441123366       -0.0671221035       -3.3039471939  MEMB      172             0.0000000000
     19988       172  SLPC      H8X            33.3089473656       -0.4466421981       -2.3547808492  MEMB      172             0.0000000000
     19989       172  SLPC      H8Y            32.8848407414        0.2412382345       -3.9371039312  MEMB      172             0.0000000000
     19990       172  SLPC      C39            34.5971535609        1.0866467294       -2.8447889831  MEMB      172             0.0000000000
     19991       172  SLPC      H9X            33.9063552281        1.7748712926       -2.3123743681  MEMB      172             0.0000000000
     19992       172  SLPC      H9Y            34.8580944386        1.6909608698       -3.7397951764  MEMB      172             0.0000000000
     19993       172  SLPC      C310           35.8586290424        0.7729395427       -2.0080065858  MEMB      172             0.0000000000
     19994       172  SLPC      H10X           36.3638743774        1.7298890399       -1.7564198923  MEMB      172             0.0000000000
     19995       172  SLPC      H10Y           36.5283282475        0.1196396304       -2.6071921202  MEMB      172             0.0000000000
     19996       172  SLPC      C311           35.5332111373       -0.1038957514       -0.7085930534  MEMB      172             0.0000000000
     19997       172  SLPC      H11X           35.0927691899       -1.0654521387       -1.0488000046  MEMB      172             0.0000000000
     19998       172  SLPC      H11Y           34.8051717934        0.4487455725       -0.0770341346  MEMB      172             0.0000000000
     19999       172  SLPC      C312           36.7852178434       -0.4129807753        0.1035764293  MEMB      172             0.0000000000
     20000       172  SLPC      H12X           37.0769118544        0.5979501769        0.4603038618  MEMB      172             0.0000000000
     20001       172  SLPC      H12Y           37.4788876140       -0.7919667878       -0.6771369456  MEMB      172             0.0000000000
     20002       172  SLPC      C313           36.6945148710       -1.4747662922        1.1393158297  MEMB      172             0.0000000000
     20003       172  SLPC      H13X           36.1285956911       -2.3538206969        0.7633887556  MEMB      172             0.0000000000
     20004       172  SLPC      H13Y           36.1736260065       -1.1160882139        2.0527397690  MEMB      172             0.0000000000
     20005       172  SLPC      C314           38.0147958811       -2.0591436138        1.4900640393  MEMB      172             0.0000000000
     20006       172  SLPC      H14X           38.6390314019       -1.2262500903        1.8785750393  MEMB      172             0.0000000000
     20007       172  SLPC      H14Y           38.3844032735       -2.5061197555        0.5424771199  MEMB      172             0.0000000000
     20008       172  SLPC      C315           38.0734845319       -3.0663088621        2.6630912845  MEMB      172             0.0000000000
     20009       172  SLPC      H15X           37.8669998888       -2.5574041728        3.6288559734  MEMB      172             0.0000000000
     20010       172  SLPC      H15Y           39.0768373808       -3.5433683877        2.6587762627  MEMB      172             0.0000000000
     20011       172  SLPC      C316           36.9699870108       -4.0967083347        2.5421459579  MEMB      172             0.0000000000
     20012       172  SLPC      H16X           36.9913080697       -4.5062035966        1.5095856886  MEMB      172             0.0000000000
     20013       172  SLPC      H16Y           35.9393402160       -3.6828919163        2.5130912233  MEMB      172             0.0000000000
     20014       172  SLPC      C317           36.9196753499       -5.3012672542        3.5526572893  MEMB      172             0.0000000000
     20015       172  SLPC      H17X           36.4387306980       -5.0051150565        4.5093723765  MEMB      172             0.0000000000
     20016       172  SLPC      H17Y           38.0094514227       -5.3400806952        3.7652660700  MEMB      172             0.0000000000
     20017       172  SLPC      C318           36.2302050322       -6.5777516791        3.0950332735  MEMB      172             0.0000000000
     20018       172  SLPC      H18X           36.6079335659       -7.4873026862        3.6091919665  MEMB      172             0.0000000000
     20019       172  SLPC      H18Y           36.3959694967       -6.7821260081        2.0156468138  MEMB      172             0.0000000000
     20020       172  SLPC      H18Z           35.1349321894       -6.5111476461        3.2689936783  MEMB      172             0.0000000000
     20021       173  CHL1      C3            -23.3267666057       28.6011792537      -17.3209650000  MEMB      173             0.0000000000
     20022       173  CHL1      H3            -24.1941455387       27.9092704352      -17.2639150000  MEMB      173             0.0000000000
     20023       173  CHL1      O3            -22.9425597943       28.9437575463      -18.6790350000  MEMB      173             0.0000000000
     20024       173  CHL1      H3'           -22.7285544461       28.0988280066      -19.0813850000  MEMB      173             0.0000000000
     20025       173  CHL1      C4            -23.6654018658       29.8996032384      -16.5481450000  MEMB      173             0.0000000000
     20026       173  CHL1      H4A           -22.8507044871       30.6090800629      -16.8073950000  MEMB      173             0.0000000000
     20027       173  CHL1      H4B           -24.5460358241       30.3682360926      -17.0372150000  MEMB      173             0.0000000000
     20028       173  CHL1      C5            -23.8223633806       29.6943590537      -14.9973350000  MEMB      173             0.0000000000
     20029       173  CHL1      C6            -24.8480752043       30.2206608690      -14.3374350000  MEMB      173             0.0000000000
     20030       173  CHL1      H6            -25.4756357090       30.8575305446      -14.9781850000  MEMB      173             0.0000000000
     20031       173  CHL1      C7            -25.0378548799       30.1544671079      -12.8222550000  MEMB      173             0.0000000000
     20032       173  CHL1      H7A           -25.2186864902       31.2014414090      -12.4975150000  MEMB      173             0.0000000000
     20033       173  CHL1      H7B           -25.8941421785       29.5544896184      -12.4465950000  MEMB      173             0.0000000000
     20034       173  CHL1      C8            -23.7225979150       29.7030430610      -12.0211450000  MEMB      173             0.0000000000
     20035       173  CHL1      H8            -22.9730336300       30.5229194258      -12.0046150000  MEMB      173             0.0000000000
     20036       173  CHL1      C14           -24.0890506889       29.2270276492      -10.6170450000  MEMB      173             0.0000000000
     20037       173  CHL1      H14           -24.7580993161       28.3515036712      -10.7590450000  MEMB      173             0.0000000000
     20038       173  CHL1      C15           -24.9652964810       30.1688853653       -9.8203450000  MEMB      173             0.0000000000
     20039       173  CHL1      H15A          -24.6822814475       31.2360389834       -9.9444650000  MEMB      173             0.0000000000
     20040       173  CHL1      H15B          -26.0651124797       30.1716153524       -9.9776150000  MEMB      173             0.0000000000
     20041       173  CHL1      C16           -24.7716712557       29.6849390382       -8.3965850000  MEMB      173             0.0000000000
     20042       173  CHL1      H16A          -24.3343584836       30.5602046296       -7.8702950000  MEMB      173             0.0000000000
     20043       173  CHL1      H16B          -25.7088913199       29.2776566228       -7.9606250000  MEMB      173             0.0000000000
     20044       173  CHL1      C17           -23.7027216395       28.5836626025       -8.4689650000  MEMB      173             0.0000000000
     20045       173  CHL1      H17           -24.2856310238       27.6462136001       -8.5943850000  MEMB      173             0.0000000000
     20046       173  CHL1      C13           -22.9492452818       28.7832366273       -9.7603250000  MEMB      173             0.0000000000
     20047       173  CHL1      C18           -21.9030757341       29.8995917135       -9.5497850000  MEMB      173             0.0000000000
     20048       173  CHL1      H18A          -21.6661499453       30.4304893642      -10.4965450000  MEMB      173             0.0000000000
     20049       173  CHL1      H18B          -22.2752391429       30.5760573619       -8.7509150000  MEMB      173             0.0000000000
     20050       173  CHL1      H18C          -20.9923782977       29.4653000108       -9.0846550000  MEMB      173             0.0000000000
     20051       173  CHL1      C12           -22.4168513718       27.5742917351      -10.5136850000  MEMB      173             0.0000000000
     20052       173  CHL1      H12A          -21.4441463576       27.2012556967      -10.1276650000  MEMB      173             0.0000000000
     20053       173  CHL1      H12B          -23.1456065762       26.7844808433      -10.2318250000  MEMB      173             0.0000000000
     20054       173  CHL1      C11           -22.0902515604       27.8493029918      -11.9636150000  MEMB      173             0.0000000000
     20055       173  CHL1      H11A          -21.2228825095       28.5435170005      -11.9715650000  MEMB      173             0.0000000000
     20056       173  CHL1      H11B          -21.6929391565       26.9486515681      -12.4786750000  MEMB      173             0.0000000000
     20057       173  CHL1      C9            -23.2113809760       28.5034027055      -12.8033050000  MEMB      173             0.0000000000
     20058       173  CHL1      H9            -23.9923040026       27.7171495563      -12.8825750000  MEMB      173             0.0000000000
     20059       173  CHL1      C10           -22.7111495558       28.8219168520      -14.2153250000  MEMB      173             0.0000000000
     20060       173  CHL1      C19           -21.4548572838       29.7834190606      -14.2169450000  MEMB      173             0.0000000000
     20061       173  CHL1      H19A          -20.5750033725       29.2586802493      -13.7870250000  MEMB      173             0.0000000000
     20062       173  CHL1      H19B          -21.3337295228       30.2528610805      -15.2165850000  MEMB      173             0.0000000000
     20063       173  CHL1      H19C          -21.5637303482       30.6465713582      -13.5259750000  MEMB      173             0.0000000000
     20064       173  CHL1      C1            -22.3124213109       27.5818646393      -15.0320750000  MEMB      173             0.0000000000
     20065       173  CHL1      H1A           -21.3764856763       27.2052278753      -14.5667850000  MEMB      173             0.0000000000
     20066       173  CHL1      H1B           -23.1426431709       26.9099592838      -14.7261250000  MEMB      173             0.0000000000
     20067       173  CHL1      C2            -22.1486312997       27.8172053760      -16.5366550000  MEMB      173             0.0000000000
     20068       173  CHL1      H2A           -21.9484610318       26.8301086067      -17.0055950000  MEMB      173             0.0000000000
     20069       173  CHL1      H2B           -21.1566445164       28.2653587809      -16.7590050000  MEMB      173             0.0000000000
     20070       173  CHL1      C20           -22.8942508191       28.4039738225       -7.1206750000  MEMB      173             0.0000000000
     20071       173  CHL1      H20           -22.2998991482       29.3271092446       -6.9506850000  MEMB      173             0.0000000000
     20072       173  CHL1      C21           -21.8737526070       27.2454935195       -7.1338050000  MEMB      173             0.0000000000
     20073       173  CHL1      H21A          -22.3409316713       26.2382603677       -7.0943750000  MEMB      173             0.0000000000
     20074       173  CHL1      H21B          -21.2286446508       27.2698601858       -6.2296150000  MEMB      173             0.0000000000
     20075       173  CHL1      H21C          -21.2588003003       27.1737984421       -8.0563050000  MEMB      173             0.0000000000
     20076       173  CHL1      C22           -23.9603129296       28.3278199789       -6.0275450000  MEMB      173             0.0000000000
     20077       173  CHL1      H22A          -24.5967982034       29.2381840395       -6.0067950000  MEMB      173             0.0000000000
     20078       173  CHL1      H22B          -24.6329278911       27.5034066432       -6.3473350000  MEMB      173             0.0000000000
     20079       173  CHL1      C23           -23.5508398913       28.0455028285       -4.5730650000  MEMB      173             0.0000000000
     20080       173  CHL1      H23A          -23.0246538270       27.0671639962       -4.5900850000  MEMB      173             0.0000000000
     20081       173  CHL1      H23B          -22.7894072428       28.8115406379       -4.3128250000  MEMB      173             0.0000000000
     20082       173  CHL1      C24           -24.6188837049       28.0767153989       -3.4724050000  MEMB      173             0.0000000000
     20083       173  CHL1      H24A          -24.8150886918       29.1399776738       -3.2168850000  MEMB      173             0.0000000000
     20084       173  CHL1      H24B          -25.4867898656       27.4964593100       -3.8523450000  MEMB      173             0.0000000000
     20085       173  CHL1      C25           -24.0992497001       27.5241723240       -2.1570650000  MEMB      173             0.0000000000
     20086       173  CHL1      H25           -23.5228197755       26.6366383649       -2.4951850000  MEMB      173             0.0000000000
     20087       173  CHL1      C26           -23.1818971477       28.4434117198       -1.3236250000  MEMB      173             0.0000000000
     20088       173  CHL1      H26A          -23.6309554657       29.2352174849       -0.6866850000  MEMB      173             0.0000000000
     20089       173  CHL1      H26B          -22.5610338003       27.8140528419       -0.6507550000  MEMB      173             0.0000000000
     20090       173  CHL1      H26C          -22.4288799305       28.8838063230       -2.0116250000  MEMB      173             0.0000000000
     20091       173  CHL1      C27           -25.1166764030       26.9752967364       -1.1800750000  MEMB      173             0.0000000000
     20092       173  CHL1      H27A          -25.6009510538       27.8309301123       -0.6626750000  MEMB      173             0.0000000000
     20093       173  CHL1      H27B          -25.8876967066       26.3224507331       -1.6422850000  MEMB      173             0.0000000000
     20094       173  CHL1      H27C          -24.5166767213       26.3848891866       -0.4549950000  MEMB      173             0.0000000000
     20095       174  CHL1      C3            -16.6208920718       33.6528120582      -17.3642750000  MEMB      174             0.0000000000
     20096       174  CHL1      H3            -16.7150663934       34.7424668565      -17.1690850000  MEMB      174             0.0000000000
     20097       174  CHL1      O3            -17.2065321282       33.3114517418      -18.6357250000  MEMB      174             0.0000000000
     20098       174  CHL1      H3'           -16.6733891897       33.6286523498      -19.3683550000  MEMB      174             0.0000000000
     20099       174  CHL1      C4            -15.1169586077       33.2922081560      -17.4212950000  MEMB      174             0.0000000000
     20100       174  CHL1      H4A           -14.9638095808       32.2679178941      -17.8233750000  MEMB      174             0.0000000000
     20101       174  CHL1      H4B           -14.5883026412       33.9549002972      -18.1394050000  MEMB      174             0.0000000000
     20102       174  CHL1      C5            -14.4953768972       33.5178443953      -16.0686750000  MEMB      174             0.0000000000
     20103       174  CHL1      C6            -13.3466543116       34.1850988173      -16.0277750000  MEMB      174             0.0000000000
     20104       174  CHL1      H6            -12.8895784762       34.4949012681      -16.9791450000  MEMB      174             0.0000000000
     20105       174  CHL1      C7            -12.5651584092       34.4007777223      -14.7586450000  MEMB      174             0.0000000000
     20106       174  CHL1      H7A           -11.4905386466       34.1768270927      -14.9300050000  MEMB      174             0.0000000000
     20107       174  CHL1      H7B           -12.8079754216       35.4302747941      -14.4187850000  MEMB      174             0.0000000000
     20108       174  CHL1      C8            -13.0671527562       33.3391757709      -13.6593850000  MEMB      174             0.0000000000
     20109       174  CHL1      H8            -12.7321553016       32.2923460999      -13.8214050000  MEMB      174             0.0000000000
     20110       174  CHL1      C14           -12.5303955649       33.7853693076      -12.2799450000  MEMB      174             0.0000000000
     20111       174  CHL1      H14           -12.9309179977       34.8149263491      -12.1618950000  MEMB      174             0.0000000000
     20112       174  CHL1      C15           -10.9621348523       33.9498536246      -12.2369950000  MEMB      174             0.0000000000
     20113       174  CHL1      H15A          -10.4728793616       33.0836691384      -12.7316150000  MEMB      174             0.0000000000
     20114       174  CHL1      H15B          -10.7456516249       34.8732003026      -12.8156950000  MEMB      174             0.0000000000
     20115       174  CHL1      C16           -10.6811030335       33.9281078268      -10.7549950000  MEMB      174             0.0000000000
     20116       174  CHL1      H16A          -10.0955336572       33.0121150899      -10.5260950000  MEMB      174             0.0000000000
     20117       174  CHL1      H16B          -10.2045600034       34.8498952629      -10.3580750000  MEMB      174             0.0000000000
     20118       174  CHL1      C17           -12.0819425729       33.6541428353      -10.0173550000  MEMB      174             0.0000000000
     20119       174  CHL1      H17           -12.5520502165       34.6183916802       -9.7283150000  MEMB      174             0.0000000000
     20120       174  CHL1      C13           -12.9632709219       33.0347941456      -11.1105350000  MEMB      174             0.0000000000
     20121       174  CHL1      C18           -12.7341939763       31.4916601586      -11.1517050000  MEMB      174             0.0000000000
     20122       174  CHL1      H18A          -13.0662283610       31.0188044364      -12.1006350000  MEMB      174             0.0000000000
     20123       174  CHL1      H18B          -11.6708597308       31.2262284537      -10.9695750000  MEMB      174             0.0000000000
     20124       174  CHL1      H18C          -13.3691565876       30.9388220777      -10.4267750000  MEMB      174             0.0000000000
     20125       174  CHL1      C12           -14.4783163639       33.2213242337      -10.9781250000  MEMB      174             0.0000000000
     20126       174  CHL1      H12A          -14.7959273662       32.8260472087       -9.9895950000  MEMB      174             0.0000000000
     20127       174  CHL1      H12B          -14.6062936205       34.3244113285      -10.9444450000  MEMB      174             0.0000000000
     20128       174  CHL1      C11           -15.2817810545       32.8787983574      -12.2688850000  MEMB      174             0.0000000000
     20129       174  CHL1      H11A          -15.3490614093       31.7757831532      -12.3835050000  MEMB      174             0.0000000000
     20130       174  CHL1      H11B          -16.2363702356       33.4172496586      -12.0867950000  MEMB      174             0.0000000000
     20131       174  CHL1      C9            -14.5973679427       33.4325630447      -13.5286950000  MEMB      174             0.0000000000
     20132       174  CHL1      H9            -14.8899699812       34.5015189987      -13.6063050000  MEMB      174             0.0000000000
     20133       174  CHL1      C10           -15.2168975292       32.9147302242      -14.8811350000  MEMB      174             0.0000000000
     20134       174  CHL1      C19           -15.0828145159       31.3526463340      -15.0547750000  MEMB      174             0.0000000000
     20135       174  CHL1      H19A          -14.0592100225       30.9271726181      -14.9803950000  MEMB      174             0.0000000000
     20136       174  CHL1      H19B          -15.7364980999       30.9796313679      -14.2375450000  MEMB      174             0.0000000000
     20137       174  CHL1      H19C          -15.5478903100       30.9136777949      -15.9632550000  MEMB      174             0.0000000000
     20138       174  CHL1      C1            -16.7471681266       33.3011826623      -14.9035850000  MEMB      174             0.0000000000
     20139       174  CHL1      H1A           -17.3080221444       32.8008124429      -14.0854350000  MEMB      174             0.0000000000
     20140       174  CHL1      H1B           -16.8678844190       34.3966960857      -14.7635750000  MEMB      174             0.0000000000
     20141       174  CHL1      C2            -17.4027758840       33.0116067192      -16.2495850000  MEMB      174             0.0000000000
     20142       174  CHL1      H2A           -18.4169617010       33.4651265781      -16.2411750000  MEMB      174             0.0000000000
     20143       174  CHL1      H2B           -17.5099613846       31.9171260238      -16.4075250000  MEMB      174             0.0000000000
     20144       174  CHL1      C20           -11.8193015640       32.9176356624       -8.7387050000  MEMB      174             0.0000000000
     20145       174  CHL1      H20           -11.4201335133       31.9047368005       -8.9601350000  MEMB      174             0.0000000000
     20146       174  CHL1      C21           -13.0834667242       32.4842036756       -8.0034750000  MEMB      174             0.0000000000
     20147       174  CHL1      H21A          -13.7503824605       33.3360856162       -7.7507950000  MEMB      174             0.0000000000
     20148       174  CHL1      H21B          -12.7590566877       32.0813392831       -7.0202250000  MEMB      174             0.0000000000
     20149       174  CHL1      H21C          -13.5999810630       31.6393210754       -8.5071850000  MEMB      174             0.0000000000
     20150       174  CHL1      C22           -10.7852584509       33.7150754594       -7.7968050000  MEMB      174             0.0000000000
     20151       174  CHL1      H22A          -10.8528529392       34.7803011572       -8.1051050000  MEMB      174             0.0000000000
     20152       174  CHL1      H22B          -11.2585188341       33.5708282732       -6.8020550000  MEMB      174             0.0000000000
     20153       174  CHL1      C23            -9.4150531867       33.1135234536       -7.8447950000  MEMB      174             0.0000000000
     20154       174  CHL1      H23A           -9.5490401376       32.0451497700       -8.1185350000  MEMB      174             0.0000000000
     20155       174  CHL1      H23B           -8.8540948295       33.5400045560       -8.7037250000  MEMB      174             0.0000000000
     20156       174  CHL1      C24            -8.5371492947       33.3797899188       -6.5629050000  MEMB      174             0.0000000000
     20157       174  CHL1      H24A           -9.0095439441       33.0035805524       -5.6303650000  MEMB      174             0.0000000000
     20158       174  CHL1      H24B           -7.6102583322       32.7755717332       -6.6634450000  MEMB      174             0.0000000000
     20159       174  CHL1      C25            -8.0074485191       34.7609062835       -6.2452650000  MEMB      174             0.0000000000
     20160       174  CHL1      H25            -7.6968477756       35.1772236405       -7.2273650000  MEMB      174             0.0000000000
     20161       174  CHL1      C26            -9.1711501353       35.6498404145       -5.6266150000  MEMB      174             0.0000000000
     20162       174  CHL1      H26A           -9.9297321504       35.9399012088       -6.3847350000  MEMB      174             0.0000000000
     20163       174  CHL1      H26B           -9.5412767589       35.0258855864       -4.7851850000  MEMB      174             0.0000000000
     20164       174  CHL1      H26C           -8.8362610435       36.5993970809       -5.1570250000  MEMB      174             0.0000000000
     20165       174  CHL1      C27            -6.8146691767       34.7006951015       -5.2528850000  MEMB      174             0.0000000000
     20166       174  CHL1      H27A           -6.2871103346       35.6735964244       -5.1555150000  MEMB      174             0.0000000000
     20167       174  CHL1      H27B           -7.0696078421       34.4269335927       -4.2067650000  MEMB      174             0.0000000000
     20168       174  CHL1      H27C           -6.0287239562       34.0250362165       -5.6529950000  MEMB      174             0.0000000000
     20169       175  SAPE      N              21.9421071188      -27.2293180911      -21.3776694420  MEMB      175             0.0000000000
     20170       175  SAPE      HN1            21.7539550618      -27.0810632550      -20.3656322242  MEMB      175             0.0000000000
     20171       175  SAPE      HN2            22.0517170030      -26.2744941624      -21.7750321921  MEMB      175             0.0000000000
     20172       175  SAPE      HN3            21.1998188077      -27.6577660802      -21.9667708431  MEMB      175             0.0000000000
     20173       175  SAPE      C12            23.1564831951      -28.0841518011      -21.6109330209  MEMB      175             0.0000000000
     20174       175  SAPE      H12A           23.9049654047      -27.5833665051      -20.9603105238  MEMB      175             0.0000000000
     20175       175  SAPE      H12B           23.5152364519      -27.9468529205      -22.6534137245  MEMB      175             0.0000000000
     20176       175  SAPE      C11            23.0549568225      -29.6094119717      -21.4441534890  MEMB      175             0.0000000000
     20177       175  SAPE      H11A           23.9871573556      -30.1231934660      -21.7625112485  MEMB      175             0.0000000000
     20178       175  SAPE      H11B           22.2774950870      -30.0149240071      -22.1263808789  MEMB      175             0.0000000000
     20179       175  SAPE      P              23.9559460886      -30.1366764228      -19.0802428644  MEMB      175             0.0000000000
     20180       175  SAPE      O13            25.2445735776      -29.8177692818      -19.7298586189  MEMB      175             0.0000000000
     20181       175  SAPE      O14            23.5578802863      -29.2142969628      -18.0046177359  MEMB      175             0.0000000000
     20182       175  SAPE      O12            22.8082944509      -30.0829214335      -20.1463935204  MEMB      175             0.0000000000
     20183       175  SAPE      O11            23.9883712633      -31.6154532233      -18.6061313048  MEMB      175             0.0000000000
     20184       175  SAPE      C1             22.8608810005      -32.4602398282      -18.9071411214  MEMB      175             0.0000000000
     20185       175  SAPE      HA             21.9179207739      -31.8788962349      -18.8223670401  MEMB      175             0.0000000000
     20186       175  SAPE      HB             23.0055906759      -32.9418593608      -19.8978089617  MEMB      175             0.0000000000
     20187       175  SAPE      C2             22.6556892132      -33.5480753410      -17.8530393796  MEMB      175             0.0000000000
     20188       175  SAPE      HS             21.6794046971      -34.0607643825      -17.9884624542  MEMB      175             0.0000000000
     20189       175  SAPE      O21            22.5668524780      -32.8384123172      -16.6212056080  MEMB      175             0.0000000000
     20190       175  SAPE      C21            22.3259453454      -33.4670288342      -15.4908536358  MEMB      175             0.0000000000
     20191       175  SAPE      O22            22.1281536365      -34.6814998489      -15.4220873285  MEMB      175             0.0000000000
     20192       175  SAPE      C22            22.0843416042      -32.3633464581      -14.4169984509  MEMB      175             0.0000000000
     20193       175  SAPE      H2R            22.8600290461      -31.5796601854      -14.5528868267  MEMB      175             0.0000000000
     20194       175  SAPE      H2S            21.0740095812      -31.9097568898      -14.5053545178  MEMB      175             0.0000000000
     20195       175  SAPE      C3             23.7893020251      -34.5808752056      -17.8246350013  MEMB      175             0.0000000000
     20196       175  SAPE      HX             24.0180225978      -35.0802332369      -18.7903727735  MEMB      175             0.0000000000
     20197       175  SAPE      HY             23.5218525255      -35.4681041204      -17.2117595537  MEMB      175             0.0000000000
     20198       175  SAPE      O31            25.0591289042      -34.0319202898      -17.3045869280  MEMB      175             0.0000000000
     20199       175  SAPE      C31            25.5102320733      -34.3157396068      -16.1434825085  MEMB      175             0.0000000000
     20200       175  SAPE      O32            25.1410665686      -35.1800873339      -15.3748239535  MEMB      175             0.0000000000
     20201       175  SAPE      C32            26.6908864478      -33.3307640951      -15.7630121402  MEMB      175             0.0000000000
     20202       175  SAPE      H2X            27.6217013445      -33.6633327981      -16.2702632351  MEMB      175             0.0000000000
     20203       175  SAPE      H2Y            26.8265242811      -33.3497138554      -14.6604860628  MEMB      175             0.0000000000
     20204       175  SAPE      C23            22.1633233496      -32.7781162480      -12.9750761222  MEMB      175             0.0000000000
     20205       175  SAPE      H3R            21.2144364904      -33.3052640270      -12.7383273596  MEMB      175             0.0000000000
     20206       175  SAPE      H3S            22.0504070414      -31.9398795927      -12.2547078811  MEMB      175             0.0000000000
     20207       175  SAPE      C24            23.3833191250      -33.5800300419      -12.6025620421  MEMB      175             0.0000000000
     20208       175  SAPE      H4R            23.7145627817      -34.2736800327      -13.4047143858  MEMB      175             0.0000000000
     20209       175  SAPE      H4S            23.0977552983      -34.2050570337      -11.7295701902  MEMB      175             0.0000000000
     20210       175  SAPE      C25            24.5618408649      -32.6870110595      -12.3490792653  MEMB      175             0.0000000000
     20211       175  SAPE      H5R            24.5768783176      -31.7149631306      -12.8637602733  MEMB      175             0.0000000000
     20212       175  SAPE      C26            25.6706931950      -32.8346408392      -11.5736658874  MEMB      175             0.0000000000
     20213       175  SAPE      H6R            26.3173456960      -31.9467764773      -11.5141886597  MEMB      175             0.0000000000
     20214       175  SAPE      C27            26.0746529262      -33.9800677474      -10.7295274524  MEMB      175             0.0000000000
     20215       175  SAPE      H7R            26.2638319085      -34.9500964798      -11.2370476400  MEMB      175             0.0000000000
     20216       175  SAPE      H7S            25.2111644780      -34.2974206701      -10.1066344591  MEMB      175             0.0000000000
     20217       175  SAPE      C28            27.3059858938      -33.7230821560       -9.8788291626  MEMB      175             0.0000000000
     20218       175  SAPE      H8R            28.1123857017      -33.0355979985      -10.1739313344  MEMB      175             0.0000000000
     20219       175  SAPE      C29            27.6288724907      -34.2796310990       -8.6654563262  MEMB      175             0.0000000000
     20220       175  SAPE      H9R            28.5381998375      -33.8988653329       -8.1774586813  MEMB      175             0.0000000000
     20221       175  SAPE      C210           26.7797839353      -35.2932347900       -7.8955005757  MEMB      175             0.0000000000
     20222       175  SAPE      H10R           27.3660334202      -36.2097900940       -7.6706471162  MEMB      175             0.0000000000
     20223       175  SAPE      H10S           26.0977264638      -35.8312324878       -8.5880877520  MEMB      175             0.0000000000
     20224       175  SAPE      C211           25.9410488005      -34.7792750609       -6.6657183457  MEMB      175             0.0000000000
     20225       175  SAPE      H11R           26.6225030542      -34.6180474272       -5.8174103651  MEMB      175             0.0000000000
     20226       175  SAPE      C212           24.6255266632      -34.6696425631       -6.4427813754  MEMB      175             0.0000000000
     20227       175  SAPE      H12R           24.2178043399      -34.0777234004       -5.6100784485  MEMB      175             0.0000000000
     20228       175  SAPE      C213           23.4953077447      -34.9832548309       -7.3939030653  MEMB      175             0.0000000000
     20229       175  SAPE      H13R           22.9062300866      -35.8633302179       -7.0580832875  MEMB      175             0.0000000000
     20230       175  SAPE      H13S           24.0053990878      -35.3965164230       -8.2901970104  MEMB      175             0.0000000000
     20231       175  SAPE      C214           22.6204791877      -33.8537339927       -7.8697718290  MEMB      175             0.0000000000
     20232       175  SAPE      H14R           23.0413366834      -33.1930857803       -8.6420561789  MEMB      175             0.0000000000
     20233       175  SAPE      C215           21.3825045760      -33.6369897389       -7.4389538750  MEMB      175             0.0000000000
     20234       175  SAPE      H15R           20.9272302507      -32.7633574262       -7.9283328829  MEMB      175             0.0000000000
     20235       175  SAPE      C216           20.7358434636      -34.5139050620       -6.3926029949  MEMB      175             0.0000000000
     20236       175  SAPE      H16R           21.4319402377      -34.7764704625       -5.5674793455  MEMB      175             0.0000000000
     20237       175  SAPE      H16S           20.3421340640      -35.4053657615       -6.9260930152  MEMB      175             0.0000000000
     20238       175  SAPE      C217           19.5034173615      -33.7682396896       -5.7525762627  MEMB      175             0.0000000000
     20239       175  SAPE      H17R           18.6657804716      -33.7143699713       -6.4804387457  MEMB      175             0.0000000000
     20240       175  SAPE      H17S           19.6430633311      -32.6700742316       -5.6584875954  MEMB      175             0.0000000000
     20241       175  SAPE      C218           19.0927157989      -34.2850196731       -4.3703986516  MEMB      175             0.0000000000
     20242       175  SAPE      H18R           18.8900562256      -35.3773766384       -4.3677582558  MEMB      175             0.0000000000
     20243       175  SAPE      H18S           18.2001668644      -33.7825683237       -3.9400267666  MEMB      175             0.0000000000
     20244       175  SAPE      C219           20.1150150219      -34.0222815891       -3.2548456551  MEMB      175             0.0000000000
     20245       175  SAPE      H19R           19.9882929168      -32.9338479643       -3.0716109616  MEMB      175             0.0000000000
     20246       175  SAPE      H19S           21.1859939035      -34.2193732971       -3.4750275782  MEMB      175             0.0000000000
     20247       175  SAPE      C220           19.7680942649      -34.6969504774       -1.9120202004  MEMB      175             0.0000000000
     20248       175  SAPE      H20R           20.6360186741      -34.6576096371       -1.2195746705  MEMB      175             0.0000000000
     20249       175  SAPE      H20S           19.7007599921      -35.8046981279       -1.8602228031  MEMB      175             0.0000000000
     20250       175  SAPE      H20T           18.8141536797      -34.2592906687       -1.5476398319  MEMB      175             0.0000000000
     20251       175  SAPE      C33            26.3364856459      -31.8547524050      -16.0591250270  MEMB      175             0.0000000000
     20252       175  SAPE      H3X            25.3891033201      -31.7539372147      -15.4876145805  MEMB      175             0.0000000000
     20253       175  SAPE      H3Y            26.3028195497      -31.6941111167      -17.1579341976  MEMB      175             0.0000000000
     20254       175  SAPE      C34            27.3681995258      -30.8202214147      -15.4808398973  MEMB      175             0.0000000000
     20255       175  SAPE      H4X            28.3405550099      -31.0131102205      -15.9824770242  MEMB      175             0.0000000000
     20256       175  SAPE      H4Y            27.5649184620      -31.0283295670      -14.4073814322  MEMB      175             0.0000000000
     20257       175  SAPE      C35            26.8809503675      -29.4119483201      -15.8563172958  MEMB      175             0.0000000000
     20258       175  SAPE      H5X            26.7084328343      -29.4243681696      -16.9537707646  MEMB      175             0.0000000000
     20259       175  SAPE      H5Y            27.6720703554      -28.7048644507      -15.5269498505  MEMB      175             0.0000000000
     20260       175  SAPE      C36            25.5256315024      -28.9122484245      -15.2321346451  MEMB      175             0.0000000000
     20261       175  SAPE      H6X            24.7233802298      -29.6269261019      -15.5148882586  MEMB      175             0.0000000000
     20262       175  SAPE      H6Y            25.5162431231      -27.9254951869      -15.7425764458  MEMB      175             0.0000000000
     20263       175  SAPE      C37            25.5153862227      -28.9486712198      -13.6892217233  MEMB      175             0.0000000000
     20264       175  SAPE      H7X            26.4639201617      -28.6396255283      -13.2002480314  MEMB      175             0.0000000000
     20265       175  SAPE      H7Y            25.5110137823      -30.0061951697      -13.3487142188  MEMB      175             0.0000000000
     20266       175  SAPE      C38            24.2297767069      -28.3574704355      -12.9652351996  MEMB      175             0.0000000000
     20267       175  SAPE      H8X            23.3318598948      -28.8281032951      -13.4197356921  MEMB      175             0.0000000000
     20268       175  SAPE      H8Y            24.1967963326      -27.2470950377      -12.9825509055  MEMB      175             0.0000000000
     20269       175  SAPE      C39            24.0029204219      -28.8193156703      -11.4866352307  MEMB      175             0.0000000000
     20270       175  SAPE      H9X            23.9482196196      -29.9252158872      -11.3954570661  MEMB      175             0.0000000000
     20271       175  SAPE      H9Y            23.1196019999      -28.3740969562      -10.9808194761  MEMB      175             0.0000000000
     20272       175  SAPE      C310           25.1255645275      -28.2933495278      -10.5741852072  MEMB      175             0.0000000000
     20273       175  SAPE      H10X           25.1566113660      -27.1833685755      -10.6102241960  MEMB      175             0.0000000000
     20274       175  SAPE      H10Y           26.1244772391      -28.6240786968      -10.9307134637  MEMB      175             0.0000000000
     20275       175  SAPE      C311           24.9772253200      -28.6965548823       -9.0783220404  MEMB      175             0.0000000000
     20276       175  SAPE      H11X           24.0239842328      -28.1932337096       -8.8093982453  MEMB      175             0.0000000000
     20277       175  SAPE      H11Y           25.7397554787      -28.1687356175       -8.4665406942  MEMB      175             0.0000000000
     20278       175  SAPE      C312           25.0151529375      -30.1804036398       -8.8031001231  MEMB      175             0.0000000000
     20279       175  SAPE      H12X           25.8376196003      -30.7050383094       -9.3347278445  MEMB      175             0.0000000000
     20280       175  SAPE      H12Y           24.0764263861      -30.6595099950       -9.1546258452  MEMB      175             0.0000000000
     20281       175  SAPE      C313           25.3830703788      -30.4210502365       -7.3598164303  MEMB      175             0.0000000000
     20282       175  SAPE      H13X           26.3458685369      -29.8845123331       -7.2202880611  MEMB      175             0.0000000000
     20283       175  SAPE      H13Y           25.6456254130      -31.4887987640       -7.2007600500  MEMB      175             0.0000000000
     20284       175  SAPE      C314           24.2658935246      -29.9375833468       -6.4135443322  MEMB      175             0.0000000000
     20285       175  SAPE      H14X           23.2733755892      -30.3444545472       -6.7028285903  MEMB      175             0.0000000000
     20286       175  SAPE      H14Y           24.1200878067      -28.8450656963       -6.5530656419  MEMB      175             0.0000000000
     20287       175  SAPE      C315           24.6695002485      -30.2309767366       -4.9167161894  MEMB      175             0.0000000000
     20288       175  SAPE      H15X           25.4177698397      -29.4380967953       -4.7028097570  MEMB      175             0.0000000000
     20289       175  SAPE      H15Y           25.0535328152      -31.2571581781       -4.7328900599  MEMB      175             0.0000000000
     20290       175  SAPE      C316           23.5934259338      -30.0432171160       -3.9442316383  MEMB      175             0.0000000000
     20291       175  SAPE      H16X           22.5856215068      -30.1197424053       -4.4055291002  MEMB      175             0.0000000000
     20292       175  SAPE      H16Y           23.6286680205      -28.9930675642       -3.5833087845  MEMB      175             0.0000000000
     20293       175  SAPE      C317           23.7703570002      -31.0895335014       -2.7960706816  MEMB      175             0.0000000000
     20294       175  SAPE      H17X           24.6472628204      -30.9688453926       -2.1246602664  MEMB      175             0.0000000000
     20295       175  SAPE      H17Y           23.7041017285      -32.1675774715       -3.0563630962  MEMB      175             0.0000000000
     20296       175  SAPE      C318           22.6538768683      -30.9098250810       -1.6807735592  MEMB      175             0.0000000000
     20297       175  SAPE      H18X           22.8851343460      -31.4610204789       -0.7442778925  MEMB      175             0.0000000000
     20298       175  SAPE      H18Y           21.6423735511      -31.3021824162       -1.9200174261  MEMB      175             0.0000000000
     20299       175  SAPE      H18Z           22.6065464297      -29.8028724185       -1.5986985107  MEMB      175             0.0000000000
     20300       176  CHL1      C3             16.9878200992      -33.6202777496      -17.3101800000  MEMB      176             0.0000000000
     20301       176  CHL1      H3             16.0033829054      -33.7761412200      -16.8193500000  MEMB      176             0.0000000000
     20302       176  CHL1      O3             16.7882603008      -33.7890328504      -18.6898200000  MEMB      176             0.0000000000
     20303       176  CHL1      H3'            15.8337597263      -33.6889125795      -18.7122600000  MEMB      176             0.0000000000
     20304       176  CHL1      C4             17.2976105421      -32.0870356612      -17.0042200000  MEMB      176             0.0000000000
     20305       176  CHL1      H4A            18.2860256802      -31.9054681841      -17.4779000000  MEMB      176             0.0000000000
     20306       176  CHL1      H4B            16.5563960243      -31.5261019421      -17.6127200000  MEMB      176             0.0000000000
     20307       176  CHL1      C5             17.3598983089      -31.6936437336      -15.5977600000  MEMB      176             0.0000000000
     20308       176  CHL1      C6             16.6218923135      -30.6978412091      -15.0341000000  MEMB      176             0.0000000000
     20309       176  CHL1      H6             15.9927412772      -29.9992136372      -15.6051500000  MEMB      176             0.0000000000
     20310       176  CHL1      C7             16.7728115966      -30.3374550010      -13.5659300000  MEMB      176             0.0000000000
     20311       176  CHL1      H7A            16.9635929988      -29.2443259584      -13.5112600000  MEMB      176             0.0000000000
     20312       176  CHL1      H7B            15.8627013915      -30.6474952374      -13.0092500000  MEMB      176             0.0000000000
     20313       176  CHL1      C8             17.9324786228      -31.0381030772      -12.7919600000  MEMB      176             0.0000000000
     20314       176  CHL1      H8             18.8580010569      -30.6025628341      -13.2255800000  MEMB      176             0.0000000000
     20315       176  CHL1      C14            17.7334489021      -30.8925719470      -11.3016200000  MEMB      176             0.0000000000
     20316       176  CHL1      H14            16.7766136039      -31.4484301316      -11.2026400000  MEMB      176             0.0000000000
     20317       176  CHL1      C15            17.4644369231      -29.6145092278      -10.5967200000  MEMB      176             0.0000000000
     20318       176  CHL1      H15A           18.1372744950      -28.7668338480      -10.8478400000  MEMB      176             0.0000000000
     20319       176  CHL1      H15B           16.4309834612      -29.3213172600      -10.8801700000  MEMB      176             0.0000000000
     20320       176  CHL1      C16            17.5627214654      -29.9670459568       -9.0479600000  MEMB      176             0.0000000000
     20321       176  CHL1      H16A           18.2206309580      -29.2881269497       -8.4643900000  MEMB      176             0.0000000000
     20322       176  CHL1      H16B           16.4783235329      -29.8512217352       -8.8358900000  MEMB      176             0.0000000000
     20323       176  CHL1      C17            18.0504047324      -31.4270975877       -9.0197800000  MEMB      176             0.0000000000
     20324       176  CHL1      H17            17.0776846946      -31.9636743188       -9.0341100000  MEMB      176             0.0000000000
     20325       176  CHL1      C13            18.7013901924      -31.7073884382      -10.3869900000  MEMB      176             0.0000000000
     20326       176  CHL1      C18            20.1574465502      -31.0776726462      -10.4193300000  MEMB      176             0.0000000000
     20327       176  CHL1      H18A           20.0520561062      -30.1306298905       -9.8480700000  MEMB      176             0.0000000000
     20328       176  CHL1      H18B           20.9424602930      -31.7438005053      -10.0017900000  MEMB      176             0.0000000000
     20329       176  CHL1      H18C           20.5696964519      -30.9203023612      -11.4389400000  MEMB      176             0.0000000000
     20330       176  CHL1      C12            18.5792546852      -33.1516509699      -10.8485000000  MEMB      176             0.0000000000
     20331       176  CHL1      H12A           19.1403658092      -33.8303633206      -10.1711200000  MEMB      176             0.0000000000
     20332       176  CHL1      H12B           17.5536623823      -33.5277677005      -10.6459800000  MEMB      176             0.0000000000
     20333       176  CHL1      C11            18.8742128051      -33.3390529197      -12.3034400000  MEMB      176             0.0000000000
     20334       176  CHL1      H11A           19.9219824872      -33.0169084121      -12.4843500000  MEMB      176             0.0000000000
     20335       176  CHL1      H11B           18.7739858244      -34.4158163599      -12.5580900000  MEMB      176             0.0000000000
     20336       176  CHL1      C9             18.0264143216      -32.4417813998      -13.2622400000  MEMB      176             0.0000000000
     20337       176  CHL1      H9             17.0226117020      -32.9009334397      -13.1361800000  MEMB      176             0.0000000000
     20338       176  CHL1      C10            18.3416640270      -32.6213106781      -14.8022500000  MEMB      176             0.0000000000
     20339       176  CHL1      C19            19.8404418663      -32.2468193635      -15.1829300000  MEMB      176             0.0000000000
     20340       176  CHL1      H19A           20.5224380366      -32.8598032835      -14.5556700000  MEMB      176             0.0000000000
     20341       176  CHL1      H19B           20.0722494876      -32.0973480284      -16.2591500000  MEMB      176             0.0000000000
     20342       176  CHL1      H19C           20.0616756385      -31.2513156391      -14.7420700000  MEMB      176             0.0000000000
     20343       176  CHL1      C1             18.0793973437      -34.1289774878      -15.2442700000  MEMB      176             0.0000000000
     20344       176  CHL1      H1A            18.8234355505      -34.7143212721      -14.6628000000  MEMB      176             0.0000000000
     20345       176  CHL1      H1B            17.1048441253      -34.4072705835      -14.7891700000  MEMB      176             0.0000000000
     20346       176  CHL1      C2             18.0316386509      -34.5510657917      -16.7956900000  MEMB      176             0.0000000000
     20347       176  CHL1      H2A            17.5821488956      -35.5669658077      -16.7808900000  MEMB      176             0.0000000000
     20348       176  CHL1      H2B            19.0026507346      -34.5390432293      -17.3354300000  MEMB      176             0.0000000000
     20349       176  CHL1      C20            18.8618823270      -31.8478733368       -7.7558100000  MEMB      176             0.0000000000
     20350       176  CHL1      H20            19.7737270414      -31.2150634123       -7.7068400000  MEMB      176             0.0000000000
     20351       176  CHL1      C21            19.4228598319      -33.3154420213       -7.7059300000  MEMB      176             0.0000000000
     20352       176  CHL1      H21A           20.1585421688      -33.5102095303       -8.5153500000  MEMB      176             0.0000000000
     20353       176  CHL1      H21B           18.6948395319      -34.1321846431       -7.8988900000  MEMB      176             0.0000000000
     20354       176  CHL1      H21C           19.8806755746      -33.5391090780       -6.7186600000  MEMB      176             0.0000000000
     20355       176  CHL1      C22            18.0584465275      -31.6854776876       -6.4314600000  MEMB      176             0.0000000000
     20356       176  CHL1      H22A           17.5755146556      -30.6859016134       -6.4755800000  MEMB      176             0.0000000000
     20357       176  CHL1      H22B           17.3264067669      -32.5185981766       -6.3654800000  MEMB      176             0.0000000000
     20358       176  CHL1      C23            18.8268250826      -31.7771241424       -5.1603400000  MEMB      176             0.0000000000
     20359       176  CHL1      H23A           19.5691418128      -32.5982416773       -5.0651800000  MEMB      176             0.0000000000
     20360       176  CHL1      H23B           19.3701387110      -30.8175975999       -5.0245200000  MEMB      176             0.0000000000
     20361       176  CHL1      C24            17.8616154160      -32.1338626008       -3.9703800000  MEMB      176             0.0000000000
     20362       176  CHL1      H24A           17.0769805413      -31.3486510159       -3.9242800000  MEMB      176             0.0000000000
     20363       176  CHL1      H24B           17.4511678987      -33.1236441147       -4.2639300000  MEMB      176             0.0000000000
     20364       176  CHL1      C25            18.4485975498      -32.2540300232       -2.5583900000  MEMB      176             0.0000000000
     20365       176  CHL1      H25            19.4447392004      -32.7448559926       -2.5916900000  MEMB      176             0.0000000000
     20366       176  CHL1      C26            18.7516337853      -30.8474011193       -1.9450000000  MEMB      176             0.0000000000
     20367       176  CHL1      H26A           19.1038085295      -30.9971387677       -0.9019800000  MEMB      176             0.0000000000
     20368       176  CHL1      H26B           19.4638025991      -30.2321894003       -2.5354700000  MEMB      176             0.0000000000
     20369       176  CHL1      H26C           17.8370562242      -30.2277433053       -1.8271100000  MEMB      176             0.0000000000
     20370       176  CHL1      C27            17.5486981363      -32.9532460829       -1.4474500000  MEMB      176             0.0000000000
     20371       176  CHL1      H27A           17.4732438203      -34.0513414612       -1.5985500000  MEMB      176             0.0000000000
     20372       176  CHL1      H27B           17.8570679169      -32.8154128557       -0.3890400000  MEMB      176             0.0000000000
     20373       176  CHL1      H27C           16.5300061889      -32.5110681003       -1.4802400000  MEMB      176             0.0000000000
     20374       177  OSM       N             -28.5498955559      -20.8688269475      -22.3458255497  MEMB      177             0.0000000000
     20375       177  OSM       C15           -28.7440596484      -19.7814906405      -23.3676462755  MEMB      177             0.0000000000
     20376       177  OSM       H15A          -27.8973886713      -19.1244733605      -23.2339419513  MEMB      177             0.0000000000
     20377       177  OSM       H15B          -29.6296461370      -19.1717932748      -23.2656374109  MEMB      177             0.0000000000
     20378       177  OSM       H15C          -28.6498122035      -20.1846496360      -24.3651331816  MEMB      177             0.0000000000
     20379       177  OSM       C14           -27.2732266049      -21.6404127101      -22.6521227798  MEMB      177             0.0000000000
     20380       177  OSM       H14A          -27.3952436574      -22.0145262179      -23.6578817205  MEMB      177             0.0000000000
     20381       177  OSM       H14B          -27.1777641396      -22.5204355866      -22.0333766453  MEMB      177             0.0000000000
     20382       177  OSM       H14C          -26.4687811157      -20.9198735891      -22.6616458584  MEMB      177             0.0000000000
     20383       177  OSM       C13           -28.5301037391      -20.2638975074      -20.9228160196  MEMB      177             0.0000000000
     20384       177  OSM       H13A          -27.6973344633      -19.5762235444      -20.9227957527  MEMB      177             0.0000000000
     20385       177  OSM       H13B          -28.2848366541      -21.1428546007      -20.3451669704  MEMB      177             0.0000000000
     20386       177  OSM       H13C          -29.4437173991      -19.7340442347      -20.6970607387  MEMB      177             0.0000000000
     20387       177  OSM       C12           -29.6826670834      -21.8566553174      -22.4722733066  MEMB      177             0.0000000000
     20388       177  OSM       H12A          -29.7570049960      -22.0342221558      -23.5349792570  MEMB      177             0.0000000000
     20389       177  OSM       H12B          -30.5054355557      -21.1812566952      -22.2898207552  MEMB      177             0.0000000000
     20390       177  OSM       C11           -29.6372130147      -23.2026354798      -21.6911833435  MEMB      177             0.0000000000
     20391       177  OSM       H11A          -29.4725815122      -24.0138268631      -22.4322541343  MEMB      177             0.0000000000
     20392       177  OSM       H11B          -30.6714342213      -23.2721339757      -21.2913366364  MEMB      177             0.0000000000
     20393       177  OSM       P             -28.9764858481      -24.3880417862      -19.4666699647  MEMB      177             0.0000000000
     20394       177  OSM       O13           -29.5633765922      -25.5724127896      -20.1478552875  MEMB      177             0.0000000000
     20395       177  OSM       O14           -27.7074976752      -24.5809084704      -18.6755601244  MEMB      177             0.0000000000
     20396       177  OSM       O11           -30.0690714888      -23.6219611641      -18.6352503109  MEMB      177             0.0000000000
     20397       177  OSM       O12           -28.7180845195      -23.2972213831      -20.6227970382  MEMB      177             0.0000000000
     20398       177  OSM       C1S           -29.9142797668      -22.2945244245      -18.1889323133  MEMB      177             0.0000000000
     20399       177  OSM       H1S           -30.7147220619      -21.6770703049      -18.6497614649  MEMB      177             0.0000000000
     20400       177  OSM       H1T           -28.9699874331      -21.8561082914      -18.5767778309  MEMB      177             0.0000000000
     20401       177  OSM       NF            -28.5282242751      -22.5328456762      -16.0211363223  MEMB      177             0.0000000000
     20402       177  OSM       HNF           -28.2768894632      -23.3847593649      -15.5682754460  MEMB      177             0.0000000000
     20403       177  OSM       C2S           -29.8334298013      -22.1851035462      -16.6101942632  MEMB      177             0.0000000000
     20404       177  OSM       H2S           -30.1266690430      -21.1599549499      -16.2981005823  MEMB      177             0.0000000000
     20405       177  OSM       C3S           -30.9068265738      -23.1270357132      -16.0823217442  MEMB      177             0.0000000000
     20406       177  OSM       H3S           -30.5685108488      -24.1601181289      -16.3116776973  MEMB      177             0.0000000000
     20407       177  OSM       O3            -32.1813785399      -22.9278570215      -16.6609829086  MEMB      177             0.0000000000
     20408       177  OSM       HO3           -31.9375072496      -22.1265351161      -17.1300350582  MEMB      177             0.0000000000
     20409       177  OSM       C4S           -30.8808246258      -22.9218500442      -14.5820979187  MEMB      177             0.0000000000
     20410       177  OSM       H4S           -31.1184260206      -21.9021037281      -14.2449581781  MEMB      177             0.0000000000
     20411       177  OSM       C5S           -30.6203496572      -23.9131696664      -13.6253221966  MEMB      177             0.0000000000
     20412       177  OSM       H5S           -30.4346246319      -24.9671617563      -13.8795002827  MEMB      177             0.0000000000
     20413       177  OSM       C6S           -30.5422315795      -23.7270954758      -12.0808038031  MEMB      177             0.0000000000
     20414       177  OSM       H6S           -29.6014303045      -24.2297588837      -11.7700887482  MEMB      177             0.0000000000
     20415       177  OSM       H6T           -31.3391080498      -24.2762485654      -11.5351479795  MEMB      177             0.0000000000
     20416       177  OSM       C7S           -30.4911588027      -22.2329768412      -11.5688940184  MEMB      177             0.0000000000
     20417       177  OSM       H7S           -31.2220078819      -21.5169945869      -12.0019644646  MEMB      177             0.0000000000
     20418       177  OSM       H7T           -29.4565459708      -21.8316489960      -11.6221224024  MEMB      177             0.0000000000
     20419       177  OSM       C8S           -30.6630598548      -22.2151611137      -10.0257336953  MEMB      177             0.0000000000
     20420       177  OSM       H8S           -30.4183023865      -23.2030323125       -9.5801718441  MEMB      177             0.0000000000
     20421       177  OSM       H8T           -31.7657737498      -22.2059394168       -9.8906119347  MEMB      177             0.0000000000
     20422       177  OSM       C9S           -30.1506109531      -20.9223396484       -9.4445284959  MEMB      177             0.0000000000
     20423       177  OSM       H9S           -30.6230281468      -20.8265034940       -8.4435502252  MEMB      177             0.0000000000
     20424       177  OSM       H9T           -30.5080450921      -20.0373295087      -10.0131403713  MEMB      177             0.0000000000
     20425       177  OSM       C10S          -28.6730779692      -20.8462362867       -9.1039479366  MEMB      177             0.0000000000
     20426       177  OSM       H10S          -27.9996274377      -21.1128283298       -9.9463931196  MEMB      177             0.0000000000
     20427       177  OSM       H10T          -28.4674371385      -21.5720997304       -8.2883775426  MEMB      177             0.0000000000
     20428       177  OSM       C11S          -28.2321407756      -19.4484481228       -8.5194762580  MEMB      177             0.0000000000
     20429       177  OSM       H11S          -28.7249959702      -18.7834676862       -9.2605671097  MEMB      177             0.0000000000
     20430       177  OSM       H11T          -27.1263806030      -19.3758448547       -8.4398250118  MEMB      177             0.0000000000
     20431       177  OSM       C12S          -28.7560443024      -19.0874897349       -7.1015768039  MEMB      177             0.0000000000
     20432       177  OSM       H12S          -29.8653393661      -19.0318447233       -7.1278285434  MEMB      177             0.0000000000
     20433       177  OSM       H12T          -28.4034900212      -18.0647304875       -6.8486142852  MEMB      177             0.0000000000
     20434       177  OSM       C13S          -28.3516473433      -20.0072904132       -5.9477945256  MEMB      177             0.0000000000
     20435       177  OSM       H13S          -28.9100121765      -20.9647405183       -6.0242084392  MEMB      177             0.0000000000
     20436       177  OSM       H13T          -28.7963231895      -19.4656341209       -5.0857083821  MEMB      177             0.0000000000
     20437       177  OSM       C14S          -26.8501559677      -20.2674020867       -5.7537364865  MEMB      177             0.0000000000
     20438       177  OSM       H14S          -26.3215543285      -19.2902450598       -5.7618219552  MEMB      177             0.0000000000
     20439       177  OSM       H14T          -26.5250525309      -20.8553203276       -6.6385992545  MEMB      177             0.0000000000
     20440       177  OSM       C15S          -26.4738118791      -20.9316836904       -4.4844164033  MEMB      177             0.0000000000
     20441       177  OSM       H15S          -26.7797263214      -20.2535370203       -3.6592770611  MEMB      177             0.0000000000
     20442       177  OSM       H15T          -25.3784467661      -21.1122459175       -4.4408994502  MEMB      177             0.0000000000
     20443       177  OSM       C16S          -27.0537294359      -22.3304620185       -4.2627413760  MEMB      177             0.0000000000
     20444       177  OSM       H16S          -26.5686731494      -22.9859356825       -5.0173249720  MEMB      177             0.0000000000
     20445       177  OSM       H16T          -28.1304181892      -22.3313182235       -4.5367162885  MEMB      177             0.0000000000
     20446       177  OSM       C17S          -26.9188448736      -22.8147331788       -2.8728212895  MEMB      177             0.0000000000
     20447       177  OSM       H17S          -27.3516847878      -22.1555038555       -2.0902700442  MEMB      177             0.0000000000
     20448       177  OSM       H17T          -25.8427632109      -22.8497480276       -2.5987002417  MEMB      177             0.0000000000
     20449       177  OSM       C18S          -27.4904671989      -24.2049712773       -2.5479609688  MEMB      177             0.0000000000
     20450       177  OSM       H18S          -27.1353038654      -24.4105965571       -1.5155380260  MEMB      177             0.0000000000
     20451       177  OSM       H18T          -27.0249507387      -24.9493845357       -3.2287438500  MEMB      177             0.0000000000
     20452       177  OSM       H18U          -28.5944260417      -24.2542166212       -2.6627246779  MEMB      177             0.0000000000
     20453       177  OSM       C1F           -27.5436654590      -21.5756488040      -16.1917905546  MEMB      177             0.0000000000
     20454       177  OSM       OF            -27.5677349278      -20.5944743947      -17.0008298728  MEMB      177             0.0000000000
     20455       177  OSM       C2F           -26.4399348006      -21.7480804047      -15.1646832953  MEMB      177             0.0000000000
     20456       177  OSM       H2F           -25.6002011335      -21.0258177356      -15.2513162352  MEMB      177             0.0000000000
     20457       177  OSM       H2G           -25.8356531509      -22.6348824068      -15.4523406768  MEMB      177             0.0000000000
     20458       177  OSM       C3F           -26.8697497721      -21.9515136541      -13.7397136654  MEMB      177             0.0000000000
     20459       177  OSM       H3F           -27.7174723379      -22.6690096952      -13.7694968138  MEMB      177             0.0000000000
     20460       177  OSM       H3G           -27.1918187724      -20.9512890600      -13.3789597230  MEMB      177             0.0000000000
     20461       177  OSM       C4F           -25.8211138261      -22.5925666120      -12.8021765548  MEMB      177             0.0000000000
     20462       177  OSM       H4F           -24.9753593467      -21.8767964313      -12.7203628960  MEMB      177             0.0000000000
     20463       177  OSM       H4G           -25.4268678965      -23.5442782135      -13.2182733695  MEMB      177             0.0000000000
     20464       177  OSM       C5F           -26.2904766357      -22.9557540311      -11.3239494538  MEMB      177             0.0000000000
     20465       177  OSM       H5F           -27.0048397669      -23.8021045937      -11.4116820116  MEMB      177             0.0000000000
     20466       177  OSM       H5G           -26.7245511491      -22.0232504744      -10.9040238211  MEMB      177             0.0000000000
     20467       177  OSM       C6F           -25.1972164412      -23.4377803527      -10.3348992527  MEMB      177             0.0000000000
     20468       177  OSM       H6F           -24.3743186968      -22.6927692303      -10.3809297240  MEMB      177             0.0000000000
     20469       177  OSM       H6G           -24.7358264142      -24.3921678873      -10.6674425068  MEMB      177             0.0000000000
     20470       177  OSM       C7F           -25.6684115513      -23.5773446668       -8.8699528384  MEMB      177             0.0000000000
     20471       177  OSM       H7F           -26.0823873766      -22.5711554430       -8.6451689965  MEMB      177             0.0000000000
     20472       177  OSM       H7G           -24.7491472741      -23.8415226530       -8.3047232664  MEMB      177             0.0000000000
     20473       177  OSM       C8F           -26.5691547332      -24.7797110511       -8.5359804692  MEMB      177             0.0000000000
     20474       177  OSM       H8F           -26.1281726024      -25.6757841323       -9.0227131350  MEMB      177             0.0000000000
     20475       177  OSM       H8G           -27.4885106098      -24.4851956803       -9.0858589816  MEMB      177             0.0000000000
     20476       177  OSM       C9F           -26.7592925913      -24.9558553341       -7.0832097020  MEMB      177             0.0000000000
     20477       177  OSM       H9F           -25.8135864203      -24.8332443838       -6.5349338503  MEMB      177             0.0000000000
     20478       177  OSM       C10F          -27.8174116665      -25.4090028940       -6.3228589617  MEMB      177             0.0000000000
     20479       177  OSM       H10F          -27.6508479426      -25.4018847701       -5.2355660295  MEMB      177             0.0000000000
     20480       177  OSM       C11F          -29.1593416384      -25.7885900740       -6.9331227119  MEMB      177             0.0000000000
     20481       177  OSM       H11F          -29.4015356099      -26.8378426617       -6.6597519745  MEMB      177             0.0000000000
     20482       177  OSM       H11G          -29.1622739407      -25.7073353032       -8.0411435670  MEMB      177             0.0000000000
     20483       177  OSM       C12F          -30.1953410891      -24.8281262177       -6.3313454738  MEMB      177             0.0000000000
     20484       177  OSM       H12F          -31.1740296264      -24.8471785090       -6.8568229451  MEMB      177             0.0000000000
     20485       177  OSM       H12G          -29.8024822057      -23.7954104259       -6.4474527954  MEMB      177             0.0000000000
     20486       177  OSM       C13F          -30.3772900008      -25.0952758152       -4.8357407251  MEMB      177             0.0000000000
     20487       177  OSM       H13F          -29.7684157518      -24.4070037719       -4.2113421496  MEMB      177             0.0000000000
     20488       177  OSM       H13G          -30.0476811702      -26.1181579931       -4.5539772582  MEMB      177             0.0000000000
     20489       177  OSM       C14F          -31.8734058758      -24.9619574927       -4.4358107072  MEMB      177             0.0000000000
     20490       177  OSM       H14F          -31.9008556219      -25.3554465135       -3.3971889853  MEMB      177             0.0000000000
     20491       177  OSM       H14G          -32.4349562882      -25.6245712839       -5.1285773319  MEMB      177             0.0000000000
     20492       177  OSM       C15F          -32.4505929522      -23.5335509990       -4.5447969692  MEMB      177             0.0000000000
     20493       177  OSM       H15F          -33.5057138434      -23.6901182052       -4.2341076258  MEMB      177             0.0000000000
     20494       177  OSM       H15G          -32.5082348876      -23.1584363040       -5.5889644426  MEMB      177             0.0000000000
     20495       177  OSM       C16F          -31.6971783329      -22.4022056453       -3.8230631783  MEMB      177             0.0000000000
     20496       177  OSM       H16F          -32.2912448517      -21.5078992583       -4.1087599307  MEMB      177             0.0000000000
     20497       177  OSM       H16G          -30.7174079337      -22.3150808337       -4.3395723778  MEMB      177             0.0000000000
     20498       177  OSM       C17F          -31.5477591822      -22.5639961201       -2.3419745895  MEMB      177             0.0000000000
     20499       177  OSM       H17F          -30.8936776199      -23.4263573031       -2.0913122731  MEMB      177             0.0000000000
     20500       177  OSM       H17G          -32.5575872604      -22.8666296679       -1.9912872148  MEMB      177             0.0000000000
     20501       177  OSM       C18F          -31.0336393127      -21.3102162822       -1.6645642091  MEMB      177             0.0000000000
     20502       177  OSM       H18F          -30.0389843623      -21.0445052815       -2.0821533849  MEMB      177             0.0000000000
     20503       177  OSM       H18G          -31.1008452558      -21.5118187867       -0.5740784912  MEMB      177             0.0000000000
     20504       177  OSM       H18H          -31.7050032697      -20.4338224900       -1.7891665704  MEMB      177             0.0000000000
     20505       178  OSM       N             -37.0097062797       12.9915022641      -22.4000855885  MEMB      178             0.0000000000
     20506       178  OSM       C15           -37.7436958793       13.8214187891      -23.3896098748  MEMB      178             0.0000000000
     20507       178  OSM       H15A          -37.2868168999       14.7991450534      -23.4309995709  MEMB      178             0.0000000000
     20508       178  OSM       H15B          -38.7636078695       13.9835654573      -23.0735591833  MEMB      178             0.0000000000
     20509       178  OSM       H15C          -37.6551992364       13.4001164022      -24.3801011259  MEMB      178             0.0000000000
     20510       178  OSM       C14           -35.5942933402       12.7688203988      -22.9317667226  MEMB      178             0.0000000000
     20511       178  OSM       H14A          -35.0179362790       13.6310250006      -23.2331231093  MEMB      178             0.0000000000
     20512       178  OSM       H14B          -35.6476040261       11.9031159661      -23.5752834964  MEMB      178             0.0000000000
     20513       178  OSM       H14C          -35.0303510946       12.2618130451      -22.1627980495  MEMB      178             0.0000000000
     20514       178  OSM       C13           -36.9905116323       13.6982805112      -21.0543330533  MEMB      178             0.0000000000
     20515       178  OSM       H13A          -36.6842332081       14.7328876190      -21.1010415601  MEMB      178             0.0000000000
     20516       178  OSM       H13B          -36.3617066906       13.0921361004      -20.4190429765  MEMB      178             0.0000000000
     20517       178  OSM       H13C          -38.0097733246       13.6518123566      -20.7002904438  MEMB      178             0.0000000000
     20518       178  OSM       C12           -37.6550791140       11.6600984242      -22.2838972186  MEMB      178             0.0000000000
     20519       178  OSM       H12A          -37.7859085684       11.2262630056      -23.2642392752  MEMB      178             0.0000000000
     20520       178  OSM       H12B          -38.5643395439       11.8848373966      -21.7461818162  MEMB      178             0.0000000000
     20521       178  OSM       C11           -36.9293473516       10.5966324582      -21.5147684362  MEMB      178             0.0000000000
     20522       178  OSM       H11A          -36.0403608834       10.3141269742      -22.1182704536  MEMB      178             0.0000000000
     20523       178  OSM       H11B          -37.4901096020        9.6380970303      -21.4819592257  MEMB      178             0.0000000000
     20524       178  OSM       P             -35.3158653308       10.7566261658      -19.5071505164  MEMB      178             0.0000000000
     20525       178  OSM       O13           -34.6096929604        9.5854151671      -20.1550846845  MEMB      178             0.0000000000
     20526       178  OSM       O14           -34.5887446903       11.9962608977      -19.5647560470  MEMB      178             0.0000000000
     20527       178  OSM       O11           -35.6231873092       10.5114719853      -17.9591416896  MEMB      178             0.0000000000
     20528       178  OSM       O12           -36.6849382128       10.9521714416      -20.2394062230  MEMB      178             0.0000000000
     20529       178  OSM       C1S           -36.6706377228       11.3611343128      -17.4531805952  MEMB      178             0.0000000000
     20530       178  OSM       H1S           -37.6081051471       11.1163026301      -17.9968103572  MEMB      178             0.0000000000
     20531       178  OSM       H1T           -36.5180254920       12.4313121273      -17.7095981490  MEMB      178             0.0000000000
     20532       178  OSM       NF            -38.1198217380       11.7788244647      -15.4815070158  MEMB      178             0.0000000000
     20533       178  OSM       HNF           -38.1594468308       12.5188094603      -14.8145277576  MEMB      178             0.0000000000
     20534       178  OSM       C2S           -36.8015454505       11.3721849641      -15.9028006410  MEMB      178             0.0000000000
     20535       178  OSM       H2S           -36.7421796626       10.3113696381      -15.5780429453  MEMB      178             0.0000000000
     20536       178  OSM       C3S           -35.7975709912       12.3192376684      -15.1281874824  MEMB      178             0.0000000000
     20537       178  OSM       H3S           -36.0572093000       13.3946646475      -15.2300003952  MEMB      178             0.0000000000
     20538       178  OSM       O3            -34.4770351469       12.1100000100      -15.5968575989  MEMB      178             0.0000000000
     20539       178  OSM       HO3           -34.4939350759       11.9764481430      -16.5473725639  MEMB      178             0.0000000000
     20540       178  OSM       C4S           -35.7588284532       12.0751627212      -13.5636653352  MEMB      178             0.0000000000
     20541       178  OSM       H4S           -35.3324291305       11.1113358322      -13.2486713462  MEMB      178             0.0000000000
     20542       178  OSM       C5S           -36.1734492742       12.8676449574      -12.5341698975  MEMB      178             0.0000000000
     20543       178  OSM       H5S           -36.7473879017       13.7914649582      -12.6989459043  MEMB      178             0.0000000000
     20544       178  OSM       C6S           -36.0601829399       12.5253022598      -10.9835847852  MEMB      178             0.0000000000
     20545       178  OSM       H6S           -36.2901623821       11.4515534684      -10.8147841301  MEMB      178             0.0000000000
     20546       178  OSM       H6T           -36.9430181253       12.8893010088      -10.4157582009  MEMB      178             0.0000000000
     20547       178  OSM       C7S           -34.7303811839       12.6785116563      -10.3338822240  MEMB      178             0.0000000000
     20548       178  OSM       H7S           -34.2982718237       13.6080951412      -10.7622244173  MEMB      178             0.0000000000
     20549       178  OSM       H7T           -34.0151506559       11.8754993699      -10.6130554609  MEMB      178             0.0000000000
     20550       178  OSM       C8S           -34.6809564988       12.5225571824       -8.7566196338  MEMB      178             0.0000000000
     20551       178  OSM       H8S           -33.5955324895       12.4622453265       -8.5274070590  MEMB      178             0.0000000000
     20552       178  OSM       H8T           -35.1114099121       11.5445717187       -8.4523577387  MEMB      178             0.0000000000
     20553       178  OSM       C9S           -35.2771554401       13.7462643753       -7.9925592634  MEMB      178             0.0000000000
     20554       178  OSM       H9S           -36.2589845058       14.1891467740       -8.2649341098  MEMB      178             0.0000000000
     20555       178  OSM       H9T           -34.6862469739       14.6526007084       -8.2449525726  MEMB      178             0.0000000000
     20556       178  OSM       C10S          -35.1505004699       13.6770132409       -6.4438017734  MEMB      178             0.0000000000
     20557       178  OSM       H10S          -34.0971686155       13.8972350855       -6.1675491933  MEMB      178             0.0000000000
     20558       178  OSM       H10T          -35.4816284509       12.6570839663       -6.1532513592  MEMB      178             0.0000000000
     20559       178  OSM       C11S          -36.0317974935       14.7970417966       -5.7089428518  MEMB      178             0.0000000000
     20560       178  OSM       H11S          -37.0222935416       15.0035091739       -6.1678656506  MEMB      178             0.0000000000
     20561       178  OSM       H11T          -35.3463689343       15.6599799028       -5.8498220991  MEMB      178             0.0000000000
     20562       178  OSM       C12S          -36.3413284568       14.4291105629       -4.2481951778  MEMB      178             0.0000000000
     20563       178  OSM       H12S          -37.2081040713       13.7540284274       -4.0830114220  MEMB      178             0.0000000000
     20564       178  OSM       H12T          -36.7975425604       15.3497666835       -3.8256049314  MEMB      178             0.0000000000
     20565       178  OSM       C13S          -35.2079066375       13.8153173966       -3.3776899801  MEMB      178             0.0000000000
     20566       178  OSM       H13S          -34.2487537805       14.3660957033       -3.4825220688  MEMB      178             0.0000000000
     20567       178  OSM       H13T          -35.0045460899       12.8138306285       -3.8135681572  MEMB      178             0.0000000000
     20568       178  OSM       C14S          -35.6780465192       13.4894154893       -1.9597376512  MEMB      178             0.0000000000
     20569       178  OSM       H14S          -34.9745315707       12.6992953310       -1.6204765185  MEMB      178             0.0000000000
     20570       178  OSM       H14T          -36.6853247282       13.0273784375       -1.8807895339  MEMB      178             0.0000000000
     20571       178  OSM       C15S          -35.6942892649       14.7550793798       -1.1589816955  MEMB      178             0.0000000000
     20572       178  OSM       H15S          -36.4780615326       15.4377017497       -1.5514734052  MEMB      178             0.0000000000
     20573       178  OSM       H15T          -34.7454885368       15.3330283072       -1.1504214777  MEMB      178             0.0000000000
     20574       178  OSM       C16S          -35.9788406281       14.5120536871        0.3707017649  MEMB      178             0.0000000000
     20575       178  OSM       H16S          -35.0638634881       14.6214358843        0.9913250307  MEMB      178             0.0000000000
     20576       178  OSM       H16T          -36.2798073009       13.4428883903        0.3957142851  MEMB      178             0.0000000000
     20577       178  OSM       C17S          -37.0938980901       15.5062955815        0.8105451100  MEMB      178             0.0000000000
     20578       178  OSM       H17S          -37.8667562978       15.6907480201        0.0340207805  MEMB      178             0.0000000000
     20579       178  OSM       H17T          -36.5315674604       16.4637738220        0.8471595571  MEMB      178             0.0000000000
     20580       178  OSM       C18S          -37.7557954164       15.0987815272        2.1096293327  MEMB      178             0.0000000000
     20581       178  OSM       H18S          -38.0116617927       14.0179753027        2.1362982763  MEMB      178             0.0000000000
     20582       178  OSM       H18T          -38.4790939725       15.7947745004        2.5858158314  MEMB      178             0.0000000000
     20583       178  OSM       H18U          -36.8829997047       15.0949863338        2.7970402595  MEMB      178             0.0000000000
     20584       178  OSM       C1F           -39.2734493292       11.2231931453      -15.7086480940  MEMB      178             0.0000000000
     20585       178  OSM       OF            -39.3845661715       10.5391033910      -16.7150408557  MEMB      178             0.0000000000
     20586       178  OSM       C2F           -40.3939890071       11.5014056117      -14.7910911814  MEMB      178             0.0000000000
     20587       178  OSM       H2F           -41.3850130238       11.2339007011      -15.2161014163  MEMB      178             0.0000000000
     20588       178  OSM       H2G           -40.4556716074       12.5780463492      -14.5239564223  MEMB      178             0.0000000000
     20589       178  OSM       C3F           -40.1516995603       10.7087278456      -13.4880495801  MEMB      178             0.0000000000
     20590       178  OSM       H3F           -39.0940046050       10.7812253881      -13.1558652078  MEMB      178             0.0000000000
     20591       178  OSM       H3G           -40.3630583427        9.6321735912      -13.6632053135  MEMB      178             0.0000000000
     20592       178  OSM       C4F           -41.0342973615       11.2988131032      -12.3270010223  MEMB      178             0.0000000000
     20593       178  OSM       H4F           -42.0468461954       11.3052572920      -12.7841933794  MEMB      178             0.0000000000
     20594       178  OSM       H4G           -40.7843692073       12.3492820793      -12.0655203831  MEMB      178             0.0000000000
     20595       178  OSM       C5F           -41.0989836884       10.3617412383      -11.1010508796  MEMB      178             0.0000000000
     20596       178  OSM       H5F           -41.5908256161        9.4016595073      -11.3668632459  MEMB      178             0.0000000000
     20597       178  OSM       H5G           -41.8618864889       10.8881619873      -10.4885307266  MEMB      178             0.0000000000
     20598       178  OSM       C6F           -39.9146804047       10.3765763557      -10.2043408984  MEMB      178             0.0000000000
     20599       178  OSM       H6F           -39.5836267324       11.4146177978       -9.9870983413  MEMB      178             0.0000000000
     20600       178  OSM       H6G           -39.0982727335        9.8349539782      -10.7282153264  MEMB      178             0.0000000000
     20601       178  OSM       C7F           -40.0661134122        9.5790191568       -8.8582050302  MEMB      178             0.0000000000
     20602       178  OSM       H7F           -40.7098307571        8.7041158177       -9.0916425175  MEMB      178             0.0000000000
     20603       178  OSM       H7G           -40.7239887401       10.0995921514       -8.1298338329  MEMB      178             0.0000000000
     20604       178  OSM       C8F           -38.8247644701        9.1703014276       -8.0901490691  MEMB      178             0.0000000000
     20605       178  OSM       H8F           -38.1395255653        8.6398906926       -8.7854430332  MEMB      178             0.0000000000
     20606       178  OSM       H8G           -39.0953853869        8.4327202571       -7.3046179884  MEMB      178             0.0000000000
     20607       178  OSM       C9F           -38.0677834725       10.3212568692       -7.5272665865  MEMB      178             0.0000000000
     20608       178  OSM       H9F           -37.5816416103       10.9742260354       -8.2670616725  MEMB      178             0.0000000000
     20609       178  OSM       C10F          -37.8206398474       10.5749873616       -6.2328062288  MEMB      178             0.0000000000
     20610       178  OSM       H10F          -37.2739625936       11.5163159850       -6.0745521819  MEMB      178             0.0000000000
     20611       178  OSM       C11F          -38.3060426311        9.7021680022       -5.0700657831  MEMB      178             0.0000000000
     20612       178  OSM       H11F          -38.3814112618        8.6163657401       -5.2929430846  MEMB      178             0.0000000000
     20613       178  OSM       H11G          -39.3509486317        9.9446929507       -4.7808005119  MEMB      178             0.0000000000
     20614       178  OSM       C12F          -37.5824967454        9.9292252847       -3.6982246821  MEMB      178             0.0000000000
     20615       178  OSM       H12F          -37.2934488400       11.0007637523       -3.6474547151  MEMB      178             0.0000000000
     20616       178  OSM       H12G          -36.6558602100        9.3366193631       -3.5417522869  MEMB      178             0.0000000000
     20617       178  OSM       C13F          -38.4470770260        9.5393061073       -2.4666838001  MEMB      178             0.0000000000
     20618       178  OSM       H13F          -38.3869991249        8.4336036573       -2.3764969395  MEMB      178             0.0000000000
     20619       178  OSM       H13G          -39.4818562571        9.9188473557       -2.6063316026  MEMB      178             0.0000000000
     20620       178  OSM       C14F          -37.9782458835       10.1911422637       -1.1659914371  MEMB      178             0.0000000000
     20621       178  OSM       H14F          -38.1790684831       11.2837510824       -1.1800339711  MEMB      178             0.0000000000
     20622       178  OSM       H14G          -36.8866769561       10.0007113241       -1.0851563712  MEMB      178             0.0000000000
     20623       178  OSM       C15F          -38.7332843208        9.6030245888        0.0417907078  MEMB      178             0.0000000000
     20624       178  OSM       H15F          -38.8278669196        8.4996612967       -0.0474523001  MEMB      178             0.0000000000
     20625       178  OSM       H15G          -39.7189394543       10.0810337529       -0.1434448471  MEMB      178             0.0000000000
     20626       178  OSM       C16F          -38.2355904915       10.1463141442        1.4029934284  MEMB      178             0.0000000000
     20627       178  OSM       H16F          -37.9626397102       11.2221621947        1.3543112448  MEMB      178             0.0000000000
     20628       178  OSM       H16G          -37.2686499563        9.6657277886        1.6644965054  MEMB      178             0.0000000000
     20629       178  OSM       C17F          -39.1908126926        9.9665842099        2.5906555311  MEMB      178             0.0000000000
     20630       178  OSM       H17F          -40.0539390138       10.6167630719        2.3325827449  MEMB      178             0.0000000000
     20631       178  OSM       H17G          -38.7054285454       10.4682099876        3.4550023985  MEMB      178             0.0000000000
     20632       178  OSM       C18F          -39.8752465753        8.6085525367        2.8179978719  MEMB      178             0.0000000000
     20633       178  OSM       H18F          -39.3567156353        7.7734592950        3.3357482518  MEMB      178             0.0000000000
     20634       178  OSM       H18G          -40.5544210616        8.3460843814        1.9788598825  MEMB      178             0.0000000000
     20635       178  OSM       H18H          -40.5856799282        8.7388174501        3.6621752984  MEMB      178             0.0000000000
     20636       179  CHL1      C3             29.8704474752       23.4085161871      -17.3095300000  MEMB      179             0.0000000000
     20637       179  CHL1      H3             29.0695442111       22.6595020969      -17.1310600000  MEMB      179             0.0000000000
     20638       179  CHL1      O3             30.0823029248       23.6700808129      -18.6904700000  MEMB      179             0.0000000000
     20639       179  CHL1      H3'            29.2581174765       23.9427476775      -19.1003100000  MEMB      179             0.0000000000
     20640       179  CHL1      C4             29.4856731991       24.7466717000      -16.6196900000  MEMB      179             0.0000000000
     20641       179  CHL1      H4A            30.3214623886       25.4457197836      -16.8367600000  MEMB      179             0.0000000000
     20642       179  CHL1      H4B            28.5799380838       25.0911499030      -17.1631100000  MEMB      179             0.0000000000
     20643       179  CHL1      C5             29.3848658864       24.6772657052      -15.1076300000  MEMB      179             0.0000000000
     20644       179  CHL1      C6             28.2995743757       25.0361467318      -14.4988400000  MEMB      179             0.0000000000
     20645       179  CHL1      H6             27.4526870923       25.4416065318      -15.0719000000  MEMB      179             0.0000000000
     20646       179  CHL1      C7             28.0626551039       24.8261287422      -13.0301200000  MEMB      179             0.0000000000
     20647       179  CHL1      H7A            27.4535326252       25.6232410915      -12.5527300000  MEMB      179             0.0000000000
     20648       179  CHL1      H7B            27.5362012314       23.8486489253      -12.9886700000  MEMB      179             0.0000000000
     20649       179  CHL1      C8             29.3653196873       24.7494422430      -12.2653700000  MEMB      179             0.0000000000
     20650       179  CHL1      H8             29.8916175061       25.7091648178      -12.4557600000  MEMB      179             0.0000000000
     20651       179  CHL1      C14            29.1188789907       24.3285541349      -10.8449700000  MEMB      179             0.0000000000
     20652       179  CHL1      H14            28.7231331157       23.2977436571      -10.9680100000  MEMB      179             0.0000000000
     20653       179  CHL1      C15            27.9931102602       24.9402649754      -10.0535200000  MEMB      179             0.0000000000
     20654       179  CHL1      H15A           27.9935750253       26.0259183530      -10.2894800000  MEMB      179             0.0000000000
     20655       179  CHL1      H15B           26.9967118766       24.4924027020      -10.2558100000  MEMB      179             0.0000000000
     20656       179  CHL1      C16            28.4129748729       24.6078919323       -8.5818900000  MEMB      179             0.0000000000
     20657       179  CHL1      H16A           28.7133944698       25.6283867322       -8.2614800000  MEMB      179             0.0000000000
     20658       179  CHL1      H16B           27.6252335239       24.0634108216       -8.0185500000  MEMB      179             0.0000000000
     20659       179  CHL1      C17            29.6839812232       23.7467590008       -8.6493000000  MEMB      179             0.0000000000
     20660       179  CHL1      H17            29.2441563979       22.7412719081       -8.8221500000  MEMB      179             0.0000000000
     20661       179  CHL1      C13            30.3483784526       24.1567389492       -9.9564400000  MEMB      179             0.0000000000
     20662       179  CHL1      C18            31.0669485157       25.5540648844       -9.8548000000  MEMB      179             0.0000000000
     20663       179  CHL1      H18A           31.4684203393       25.7659764664      -10.8688200000  MEMB      179             0.0000000000
     20664       179  CHL1      H18B           30.2767322110       26.2951624288       -9.6084800000  MEMB      179             0.0000000000
     20665       179  CHL1      H18C           31.9024556857       25.6105217638       -9.1246900000  MEMB      179             0.0000000000
     20666       179  CHL1      C12            31.2186953239       23.0920113304      -10.5542400000  MEMB      179             0.0000000000
     20667       179  CHL1      H12A           32.2125392922       23.1258148592      -10.0588000000  MEMB      179             0.0000000000
     20668       179  CHL1      H12B           30.7102765291       22.1181151534      -10.3888000000  MEMB      179             0.0000000000
     20669       179  CHL1      C11            31.4778852266       23.2466290385      -12.0652100000  MEMB      179             0.0000000000
     20670       179  CHL1      H11A           32.2834365426       24.0117490224      -12.0610800000  MEMB      179             0.0000000000
     20671       179  CHL1      H11B           31.8821595807       22.3614998735      -12.6013400000  MEMB      179             0.0000000000
     20672       179  CHL1      C9             30.2254661848       23.6230807472      -12.9299900000  MEMB      179             0.0000000000
     20673       179  CHL1      H9             29.6521623271       22.6714450511      -12.9249200000  MEMB      179             0.0000000000
     20674       179  CHL1      C10            30.5553158484       23.9404686687      -14.3900700000  MEMB      179             0.0000000000
     20675       179  CHL1      C19            31.8293645629       24.8820749821      -14.3743500000  MEMB      179             0.0000000000
     20676       179  CHL1      H19A           31.9662441009       25.5607589454      -15.2432400000  MEMB      179             0.0000000000
     20677       179  CHL1      H19B           31.6996653168       25.5711501867      -13.5125700000  MEMB      179             0.0000000000
     20678       179  CHL1      H19C           32.7656211447       24.2952895020      -14.2584500000  MEMB      179             0.0000000000
     20679       179  CHL1      C1             30.9544902236       22.5914684544      -15.1664600000  MEMB      179             0.0000000000
     20680       179  CHL1      H1A            31.7993399487       22.1145010845      -14.6251100000  MEMB      179             0.0000000000
     20681       179  CHL1      H1B            30.0825740417       21.9040589882      -15.1271900000  MEMB      179             0.0000000000
     20682       179  CHL1      C2             31.1392492717       22.8545187215      -16.6737300000  MEMB      179             0.0000000000
     20683       179  CHL1      H2A            31.2549174404       21.9014314608      -17.2328200000  MEMB      179             0.0000000000
     20684       179  CHL1      H2B            32.0333363822       23.4937431233      -16.8359900000  MEMB      179             0.0000000000
     20685       179  CHL1      C20            30.5731844180       23.8581284919       -7.4328600000  MEMB      179             0.0000000000
     20686       179  CHL1      H20            31.3672451842       24.6197261237       -7.5870100000  MEMB      179             0.0000000000
     20687       179  CHL1      C21            31.2230693555       22.4811824575       -7.2456700000  MEMB      179             0.0000000000
     20688       179  CHL1      H21A           30.4772606273       21.6773578007       -7.0669000000  MEMB      179             0.0000000000
     20689       179  CHL1      H21B           31.9300399333       22.6204942640       -6.4000300000  MEMB      179             0.0000000000
     20690       179  CHL1      H21C           31.8201734323       22.2178656300       -8.1448100000  MEMB      179             0.0000000000
     20691       179  CHL1      C22            29.7377483376       24.2493046209       -6.1123100000  MEMB      179             0.0000000000
     20692       179  CHL1      H22A           29.2326061486       25.2347367035       -6.2022800000  MEMB      179             0.0000000000
     20693       179  CHL1      H22B           29.0369916568       23.3893076977       -6.0517200000  MEMB      179             0.0000000000
     20694       179  CHL1      C23            30.4799012127       24.1627490151       -4.7688500000  MEMB      179             0.0000000000
     20695       179  CHL1      H23A           30.6970658895       23.0898546535       -4.5789900000  MEMB      179             0.0000000000
     20696       179  CHL1      H23B           31.3992733919       24.7856090837       -4.7353500000  MEMB      179             0.0000000000
     20697       179  CHL1      C24            29.5716393417       24.5875110764       -3.5343500000  MEMB      179             0.0000000000
     20698       179  CHL1      H24A           29.3256539398       25.6401931990       -3.7906100000  MEMB      179             0.0000000000
     20699       179  CHL1      H24B           28.6801278331       23.9282908932       -3.4640100000  MEMB      179             0.0000000000
     20700       179  CHL1      C25            30.2738805786       24.6178959022       -2.2025500000  MEMB      179             0.0000000000
     20701       179  CHL1      H25            30.7273016531       23.6334765933       -1.9583700000  MEMB      179             0.0000000000
     20702       179  CHL1      C26            31.4751517134       25.5182067717       -2.1229200000  MEMB      179             0.0000000000
     20703       179  CHL1      H26A           32.3510243547       25.1128778214       -2.6732700000  MEMB      179             0.0000000000
     20704       179  CHL1      H26B           31.1847397600       26.4319967026       -2.6841400000  MEMB      179             0.0000000000
     20705       179  CHL1      H26C           31.7690856771       25.6829280792       -1.0642500000  MEMB      179             0.0000000000
     20706       179  CHL1      C27            29.2587237984       25.1211695323       -1.1494300000  MEMB      179             0.0000000000
     20707       179  CHL1      H27A           29.7394383023       25.1595731963       -0.1485500000  MEMB      179             0.0000000000
     20708       179  CHL1      H27B           28.7943141925       26.1087697181       -1.3574900000  MEMB      179             0.0000000000
     20709       179  CHL1      H27C           28.3397755243       24.5082533868       -1.0303000000  MEMB      179             0.0000000000
     20710       180  CHL1      C3            -29.8976819089       24.3984911138      -17.3152300000  MEMB      180             0.0000000000
     20711       180  CHL1      H3            -29.9553005056       25.5073026160      -17.3546200000  MEMB      180             0.0000000000
     20712       180  CHL1      O3            -29.7550040911       24.0035982862      -18.6847700000  MEMB      180             0.0000000000
     20713       180  CHL1      H3'           -30.2931055866       24.5958453838      -19.2151400000  MEMB      180             0.0000000000
     20714       180  CHL1      C4            -28.6712435113       23.8620778754      -16.5246900000  MEMB      180             0.0000000000
     20715       180  CHL1      H4A           -28.7372487494       22.7665593027      -16.6973500000  MEMB      180             0.0000000000
     20716       180  CHL1      H4B           -27.6584975464       24.1539616650      -16.8760600000  MEMB      180             0.0000000000
     20717       180  CHL1      C5            -28.8162405564       24.0757602130      -15.0484700000  MEMB      180             0.0000000000
     20718       180  CHL1      C6            -27.8492758164       24.6783160568      -14.3525200000  MEMB      180             0.0000000000
     20719       180  CHL1      H6            -26.9261122197       24.7941264021      -14.9393500000  MEMB      180             0.0000000000
     20720       180  CHL1      C7            -27.9485580498       24.9220590695      -12.8866900000  MEMB      180             0.0000000000
     20721       180  CHL1      H7A           -26.9101254005       24.7117219476      -12.5524100000  MEMB      180             0.0000000000
     20722       180  CHL1      H7B           -28.0484571632       26.0156427155      -12.7181300000  MEMB      180             0.0000000000
     20723       180  CHL1      C8            -29.0588917108       24.1695560753      -12.1703000000  MEMB      180             0.0000000000
     20724       180  CHL1      H8            -28.7245151730       23.1105807501      -12.1375400000  MEMB      180             0.0000000000
     20725       180  CHL1      C14           -29.2997112372       24.6997358558      -10.7450900000  MEMB      180             0.0000000000
     20726       180  CHL1      H14           -29.6419806646       25.7351977957      -10.9572400000  MEMB      180             0.0000000000
     20727       180  CHL1      C15           -28.1389432524       24.7859670792       -9.7445200000  MEMB      180             0.0000000000
     20728       180  CHL1      H15A          -27.4179907368       23.9510168275       -9.8764500000  MEMB      180             0.0000000000
     20729       180  CHL1      H15B          -27.5566430588       25.6990807031       -9.9924400000  MEMB      180             0.0000000000
     20730       180  CHL1      C16           -28.8917834152       24.8840556155       -8.3871500000  MEMB      180             0.0000000000
     20731       180  CHL1      H16A          -28.4838890063       24.0323690568       -7.8018500000  MEMB      180             0.0000000000
     20732       180  CHL1      H16B          -28.6735711940       25.8508320801       -7.8851100000  MEMB      180             0.0000000000
     20733       180  CHL1      C17           -30.4348177832       24.6436057381       -8.5683400000  MEMB      180             0.0000000000
     20734       180  CHL1      H17           -30.9716516749       25.6158564880       -8.5975400000  MEMB      180             0.0000000000
     20735       180  CHL1      C13           -30.4253334908       24.0231916758      -10.0051000000  MEMB      180             0.0000000000
     20736       180  CHL1      C18           -30.1225383790       22.5657692523       -9.8287400000  MEMB      180             0.0000000000
     20737       180  CHL1      H18A          -30.9984390348       22.1422871558       -9.2922800000  MEMB      180             0.0000000000
     20738       180  CHL1      H18B          -30.1509787739       21.9855798005      -10.7757800000  MEMB      180             0.0000000000
     20739       180  CHL1      H18C          -29.1642665973       22.2770563249       -9.3463700000  MEMB      180             0.0000000000
     20740       180  CHL1      C12           -31.6913707028       24.3294471537      -10.8007900000  MEMB      180             0.0000000000
     20741       180  CHL1      H12A          -32.6224667656       23.9131062089      -10.3602900000  MEMB      180             0.0000000000
     20742       180  CHL1      H12B          -31.8187397215       25.4277139930      -10.9098400000  MEMB      180             0.0000000000
     20743       180  CHL1      C11           -31.5760175288       23.7596869377      -12.2053600000  MEMB      180             0.0000000000
     20744       180  CHL1      H11A          -31.4587358652       22.6733790560      -12.0041100000  MEMB      180             0.0000000000
     20745       180  CHL1      H11B          -32.5282288426       23.9130174714      -12.7568100000  MEMB      180             0.0000000000
     20746       180  CHL1      C9            -30.3358163917       24.2224613146      -12.9533700000  MEMB      180             0.0000000000
     20747       180  CHL1      H9            -30.5217541926       25.2920708484      -13.1893500000  MEMB      180             0.0000000000
     20748       180  CHL1      C10           -30.1914364649       23.6713009190      -14.3847400000  MEMB      180             0.0000000000
     20749       180  CHL1      C19           -30.2429429732       22.1016262914      -14.2635000000  MEMB      180             0.0000000000
     20750       180  CHL1      H19A          -29.5819069692       21.7262585843      -13.4532800000  MEMB      180             0.0000000000
     20751       180  CHL1      H19B          -31.3013621432       21.8120077461      -14.0897400000  MEMB      180             0.0000000000
     20752       180  CHL1      H19C          -29.9695541656       21.4987647083      -15.1557600000  MEMB      180             0.0000000000
     20753       180  CHL1      C1            -31.3671218951       24.2478938387      -15.2961500000  MEMB      180             0.0000000000
     20754       180  CHL1      H1A           -32.3219065441       23.7883786726      -14.9621600000  MEMB      180             0.0000000000
     20755       180  CHL1      H1B           -31.3862368488       25.3506260333      -15.1622700000  MEMB      180             0.0000000000
     20756       180  CHL1      C2            -31.2767384126       24.0238470777      -16.8544300000  MEMB      180             0.0000000000
     20757       180  CHL1      H2A           -32.0068920168       24.6282173460      -17.4340300000  MEMB      180             0.0000000000
     20758       180  CHL1      H2B           -31.5744259741       22.9682085808      -17.0314500000  MEMB      180             0.0000000000
     20759       180  CHL1      C20           -31.0805616141       23.9014863988       -7.3156200000  MEMB      180             0.0000000000
     20760       180  CHL1      H20           -30.8016806341       22.8266835572       -7.3523100000  MEMB      180             0.0000000000
     20761       180  CHL1      C21           -32.5899786406       23.9488387757       -7.4357500000  MEMB      180             0.0000000000
     20762       180  CHL1      H21A          -32.9740716166       24.9449784601       -7.1283400000  MEMB      180             0.0000000000
     20763       180  CHL1      H21B          -33.0050111970       23.2283621213       -6.6988800000  MEMB      180             0.0000000000
     20764       180  CHL1      H21C          -33.0119713227       23.7150765180       -8.4365500000  MEMB      180             0.0000000000
     20765       180  CHL1      C22           -30.6624816350       24.5191991582       -5.9381900000  MEMB      180             0.0000000000
     20766       180  CHL1      H22A          -29.5622551566       24.6734036910       -5.9316400000  MEMB      180             0.0000000000
     20767       180  CHL1      H22B          -31.0767516684       25.5499937196       -5.9253900000  MEMB      180             0.0000000000
     20768       180  CHL1      C23           -31.0152940607       23.7404368680       -4.7194900000  MEMB      180             0.0000000000
     20769       180  CHL1      H23A          -32.0731772297       23.4017570763       -4.6970800000  MEMB      180             0.0000000000
     20770       180  CHL1      H23B          -30.3387396309       22.8601057835       -4.6792200000  MEMB      180             0.0000000000
     20771       180  CHL1      C24           -30.7192345404       24.6100297160       -3.4725000000  MEMB      180             0.0000000000
     20772       180  CHL1      H24A          -29.7146286513       25.0822878857       -3.5178800000  MEMB      180             0.0000000000
     20773       180  CHL1      H24B          -31.5121943925       25.3881918098       -3.4701600000  MEMB      180             0.0000000000
     20774       180  CHL1      C25           -30.8043576594       23.9183970173       -2.1278500000  MEMB      180             0.0000000000
     20775       180  CHL1      H25           -31.6973122517       23.2579243147       -2.1550900000  MEMB      180             0.0000000000
     20776       180  CHL1      C26           -29.6142909821       22.9498576668       -1.8778400000  MEMB      180             0.0000000000
     20777       180  CHL1      H26A          -29.8367852925       22.4701608654       -0.9007500000  MEMB      180             0.0000000000
     20778       180  CHL1      H26B          -29.5317464533       22.2339183096       -2.7233800000  MEMB      180             0.0000000000
     20779       180  CHL1      H26C          -28.7014706422       23.5791372536       -1.9491700000  MEMB      180             0.0000000000
     20780       180  CHL1      C27           -30.9295147425       24.9473540684       -0.9753700000  MEMB      180             0.0000000000
     20781       180  CHL1      H27A          -29.9839530703       25.5177312176       -0.8532600000  MEMB      180             0.0000000000
     20782       180  CHL1      H27B          -31.8017807256       25.5985026755       -1.1978100000  MEMB      180             0.0000000000
     20783       180  CHL1      H27C          -31.0659806064       24.4486225802        0.0079700000  MEMB      180             0.0000000000
     20784       181  SAPE      N              37.0919803897      -11.7445993375      -22.7573277661  MEMB      181             0.0000000000
     20785       181  SAPE      HN1            37.7707928256      -12.3806805482      -22.2923392483  MEMB      181             0.0000000000
     20786       181  SAPE      HN2            37.0015463264      -11.9911555635      -23.7636237324  MEMB      181             0.0000000000
     20787       181  SAPE      HN3            37.3960892056      -10.7567720733      -22.6419360124  MEMB      181             0.0000000000
     20788       181  SAPE      C12            35.7502427791      -11.9399421374      -22.0350517610  MEMB      181             0.0000000000
     20789       181  SAPE      H12A           35.5591052397      -13.0336892134      -21.9962611039  MEMB      181             0.0000000000
     20790       181  SAPE      H12B           34.9912559377      -11.3976317415      -22.6385078787  MEMB      181             0.0000000000
     20791       181  SAPE      C11            35.6989083125      -11.2729508135      -20.6634172293  MEMB      181             0.0000000000
     20792       181  SAPE      H11A           34.7430414134      -11.4568979366      -20.1278775917  MEMB      181             0.0000000000
     20793       181  SAPE      H11B           35.9894857604      -10.2027945993      -20.5952163034  MEMB      181             0.0000000000
     20794       181  SAPE      P              36.5228708424      -13.1035982210      -18.9277274610  MEMB      181             0.0000000000
     20795       181  SAPE      O13            35.1235539745      -13.2217323349      -18.4785908077  MEMB      181             0.0000000000
     20796       181  SAPE      O14            37.1235347273      -14.2996289445      -19.5900626868  MEMB      181             0.0000000000
     20797       181  SAPE      O12            36.6667829479      -11.8648333518      -19.8333212496  MEMB      181             0.0000000000
     20798       181  SAPE      O11            37.4722700261      -12.7653316615      -17.7145010290  MEMB      181             0.0000000000
     20799       181  SAPE      C1             38.3527691426      -11.6568073929      -17.7180616011  MEMB      181             0.0000000000
     20800       181  SAPE      HA             39.3367501814      -12.1303632672      -17.9226275381  MEMB      181             0.0000000000
     20801       181  SAPE      HB             38.1234260788      -10.8573595424      -18.4546794887  MEMB      181             0.0000000000
     20802       181  SAPE      C2             38.3526179548      -10.7681729491      -16.4433119293  MEMB      181             0.0000000000
     20803       181  SAPE      HS             39.2666633462      -10.1397687213      -16.5061641011  MEMB      181             0.0000000000
     20804       181  SAPE      O21            38.4301374802      -11.6685877214      -15.2958195458  MEMB      181             0.0000000000
     20805       181  SAPE      C21            38.7181071966      -11.0309443376      -14.2416937984  MEMB      181             0.0000000000
     20806       181  SAPE      O22            39.1357883064       -9.8627348649      -14.1988831888  MEMB      181             0.0000000000
     20807       181  SAPE      C22            38.4062930717      -11.9257780006      -13.0064567121  MEMB      181             0.0000000000
     20808       181  SAPE      H2R            37.4522094803      -11.5381084649      -12.5896137807  MEMB      181             0.0000000000
     20809       181  SAPE      H2S            38.2450850094      -12.9764436912      -13.3296197819  MEMB      181             0.0000000000
     20810       181  SAPE      C3             37.0051860372       -9.8991745721      -16.3013681698  MEMB      181             0.0000000000
     20811       181  SAPE      HX             36.7217748924       -9.5702630652      -17.3240197216  MEMB      181             0.0000000000
     20812       181  SAPE      HY             37.0507723987       -8.9838348115      -15.6733586547  MEMB      181             0.0000000000
     20813       181  SAPE      O31            35.9386314351      -10.8500907233      -15.9413584029  MEMB      181             0.0000000000
     20814       181  SAPE      C31            35.2891299409      -10.6607903950      -14.7499831687  MEMB      181             0.0000000000
     20815       181  SAPE      O32            35.5768237744       -9.8671883104      -13.8869715521  MEMB      181             0.0000000000
     20816       181  SAPE      C32            34.1871943309      -11.7413902516      -14.6639871982  MEMB      181             0.0000000000
     20817       181  SAPE      H2X            33.6570870348      -11.4532407058      -15.5968734206  MEMB      181             0.0000000000
     20818       181  SAPE      H2Y            33.5410307108      -11.5614416039      -13.7783164898  MEMB      181             0.0000000000
     20819       181  SAPE      C23            39.5051365091      -11.7705356756      -12.0262874790  MEMB      181             0.0000000000
     20820       181  SAPE      H3R            39.4566685615      -10.7386300205      -11.6174567214  MEMB      181             0.0000000000
     20821       181  SAPE      H3S            40.4606029561      -11.9622599938      -12.5598101452  MEMB      181             0.0000000000
     20822       181  SAPE      C24            39.3546168864      -12.8466666712      -10.8726906630  MEMB      181             0.0000000000
     20823       181  SAPE      H4R            39.1205253563      -13.8612793674      -11.2600965675  MEMB      181             0.0000000000
     20824       181  SAPE      H4S            38.4342713737      -12.4051309689      -10.4341348146  MEMB      181             0.0000000000
     20825       181  SAPE      C25            40.5235933590      -12.8216400872       -9.9637813449  MEMB      181             0.0000000000
     20826       181  SAPE      H5R            41.4536564801      -12.3118810239      -10.2555492074  MEMB      181             0.0000000000
     20827       181  SAPE      C26            40.5886325179      -13.3935522858       -8.7238173122  MEMB      181             0.0000000000
     20828       181  SAPE      H6R            41.4079199725      -13.1060251247       -8.0484677680  MEMB      181             0.0000000000
     20829       181  SAPE      C27            39.3767286622      -14.1709612214       -8.0851211841  MEMB      181             0.0000000000
     20830       181  SAPE      H7R            38.4042186548      -13.6551981737       -8.2352342622  MEMB      181             0.0000000000
     20831       181  SAPE      H7S            39.4571566154      -14.0223288959       -6.9870504715  MEMB      181             0.0000000000
     20832       181  SAPE      C28            39.4596445641      -15.7141017618       -8.5199375439  MEMB      181             0.0000000000
     20833       181  SAPE      H8R            40.0818741830      -16.0307288406       -9.3699823357  MEMB      181             0.0000000000
     20834       181  SAPE      C29            38.8620403412      -16.6909317972       -7.8323297837  MEMB      181             0.0000000000
     20835       181  SAPE      H9R            39.0361632601      -17.7218830942       -8.1741187912  MEMB      181             0.0000000000
     20836       181  SAPE      C210           37.9946291432      -16.5202218964       -6.6504047379  MEMB      181             0.0000000000
     20837       181  SAPE      H10R           37.0246986299      -16.1613468029       -7.0563160093  MEMB      181             0.0000000000
     20838       181  SAPE      H10S           38.4644281924      -15.6464211345       -6.1503217610  MEMB      181             0.0000000000
     20839       181  SAPE      C211           37.7877435145      -17.5053266611       -5.5537960566  MEMB      181             0.0000000000
     20840       181  SAPE      H11R           38.0767659523      -18.5458148008       -5.7632012299  MEMB      181             0.0000000000
     20841       181  SAPE      C212           37.2832676601      -17.1693313919       -4.3237440464  MEMB      181             0.0000000000
     20842       181  SAPE      H12R           37.2730897746      -17.9555687116       -3.5545069176  MEMB      181             0.0000000000
     20843       181  SAPE      C213           36.8875100096      -15.8092020562       -3.8140945403  MEMB      181             0.0000000000
     20844       181  SAPE      H13R           35.7982672758      -15.7119635811       -3.6180943189  MEMB      181             0.0000000000
     20845       181  SAPE      H13S           37.2176073448      -15.0317692669       -4.5358664317  MEMB      181             0.0000000000
     20846       181  SAPE      C214           37.5454833316      -15.5371600288       -2.4709009823  MEMB      181             0.0000000000
     20847       181  SAPE      H14R           38.5401323862      -15.9950756752       -2.3660853413  MEMB      181             0.0000000000
     20848       181  SAPE      C215           37.1521928323      -14.8372614819       -1.4625172395  MEMB      181             0.0000000000
     20849       181  SAPE      H15R           37.9126457661      -14.7296056000       -0.6750395048  MEMB      181             0.0000000000
     20850       181  SAPE      C216           35.8091144550      -14.0920304974       -1.2747223192  MEMB      181             0.0000000000
     20851       181  SAPE      H16R           35.1427030378      -14.5034143695       -2.0627455523  MEMB      181             0.0000000000
     20852       181  SAPE      H16S           36.0337016022      -13.0124770789       -1.4105402787  MEMB      181             0.0000000000
     20853       181  SAPE      C217           35.1689115672      -14.2743467562        0.1163243411  MEMB      181             0.0000000000
     20854       181  SAPE      H17R           34.8151730803      -15.3273069077        0.0947570285  MEMB      181             0.0000000000
     20855       181  SAPE      H17S           34.1980691306      -13.7379141542        0.0528753478  MEMB      181             0.0000000000
     20856       181  SAPE      C218           35.9429543467      -13.7484035136        1.2393361349  MEMB      181             0.0000000000
     20857       181  SAPE      H18R           37.0046552450      -14.0745164004        1.2117134196  MEMB      181             0.0000000000
     20858       181  SAPE      H18S           35.5610414283      -14.0505170805        2.2379315027  MEMB      181             0.0000000000
     20859       181  SAPE      C219           35.8100677397      -12.2148360492        1.2888725479  MEMB      181             0.0000000000
     20860       181  SAPE      H19R           34.7379490937      -11.9658430615        1.1375932917  MEMB      181             0.0000000000
     20861       181  SAPE      H19S           36.4620810336      -11.9065785327        0.4437827259  MEMB      181             0.0000000000
     20862       181  SAPE      C220           36.3357270104      -11.5167918199        2.5625325000  MEMB      181             0.0000000000
     20863       181  SAPE      H20R           36.2607944685      -10.4088402745        2.5964373140  MEMB      181             0.0000000000
     20864       181  SAPE      H20S           37.3825462265      -11.8431378156        2.7413868438  MEMB      181             0.0000000000
     20865       181  SAPE      H20T           35.8061381525      -11.8083477089        3.4946553215  MEMB      181             0.0000000000
     20866       181  SAPE      C33            34.7931850060      -13.1575215389      -14.5753448255  MEMB      181             0.0000000000
     20867       181  SAPE      H3X            35.7319687231      -12.9929328915      -14.0044536025  MEMB      181             0.0000000000
     20868       181  SAPE      H3Y            34.9513510737      -13.4523644673      -15.6347656935  MEMB      181             0.0000000000
     20869       181  SAPE      C34            33.8566491640      -14.2172540392      -13.8672757287  MEMB      181             0.0000000000
     20870       181  SAPE      H4X            33.2005641707      -14.7235061102      -14.6072638758  MEMB      181             0.0000000000
     20871       181  SAPE      H4Y            33.1135475027      -13.6135759358      -13.3036322313  MEMB      181             0.0000000000
     20872       181  SAPE      C35            34.6408938069      -15.2497598221      -12.9726834319  MEMB      181             0.0000000000
     20873       181  SAPE      H5X            35.3765523339      -15.8415570310      -13.5582631325  MEMB      181             0.0000000000
     20874       181  SAPE      H5Y            33.8874111895      -15.9793969704      -12.6063312144  MEMB      181             0.0000000000
     20875       181  SAPE      C36            35.4368494737      -14.7623475236      -11.7721369615  MEMB      181             0.0000000000
     20876       181  SAPE      H6X            36.3516869706      -14.1963736050      -12.0497460322  MEMB      181             0.0000000000
     20877       181  SAPE      H6Y            35.8106752071      -15.6516849217      -11.2210887872  MEMB      181             0.0000000000
     20878       181  SAPE      C37            34.5956015757      -14.1741744861      -10.6060695833  MEMB      181             0.0000000000
     20879       181  SAPE      H7X            33.9359211836      -15.0326548159      -10.3567623255  MEMB      181             0.0000000000
     20880       181  SAPE      H7Y            34.0272278738      -13.2707393560      -10.9144161918  MEMB      181             0.0000000000
     20881       181  SAPE      C38            35.4352022952      -13.8878450750       -9.3647324491  MEMB      181             0.0000000000
     20882       181  SAPE      H8X            35.9846955450      -12.9566603821       -9.6202186420  MEMB      181             0.0000000000
     20883       181  SAPE      H8Y            36.2142934287      -14.6712570839       -9.2480979272  MEMB      181             0.0000000000
     20884       181  SAPE      C39            34.6785820577      -13.4695737319       -8.1581291452  MEMB      181             0.0000000000
     20885       181  SAPE      H9X            34.1035901857      -14.3082511436       -7.7105510674  MEMB      181             0.0000000000
     20886       181  SAPE      H9Y            34.0185912004      -12.5924662583       -8.3296387359  MEMB      181             0.0000000000
     20887       181  SAPE      C310           35.6290447404      -13.0923697691       -7.0388984645  MEMB      181             0.0000000000
     20888       181  SAPE      H10X           36.2012500466      -12.2054801489       -7.3857827966  MEMB      181             0.0000000000
     20889       181  SAPE      H10Y           36.2038779536      -14.0061507995       -6.7764258989  MEMB      181             0.0000000000
     20890       181  SAPE      C311           34.8062193901      -12.5569485047       -5.7977653142  MEMB      181             0.0000000000
     20891       181  SAPE      H11X           34.1525919510      -13.4103576375       -5.5170780539  MEMB      181             0.0000000000
     20892       181  SAPE      H11Y           34.1858821304      -11.7233358812       -6.1909489408  MEMB      181             0.0000000000
     20893       181  SAPE      C312           35.6869930979      -12.0994261094       -4.6468851170  MEMB      181             0.0000000000
     20894       181  SAPE      H12X           36.3305312582      -12.9812903566       -4.4407424212  MEMB      181             0.0000000000
     20895       181  SAPE      H12Y           35.0830567273      -11.8590875476       -3.7458755645  MEMB      181             0.0000000000
     20896       181  SAPE      C313           36.5593188445      -10.8781964000       -4.9462445983  MEMB      181             0.0000000000
     20897       181  SAPE      H13X           36.1140026986       -9.9357482583       -4.5617888308  MEMB      181             0.0000000000
     20898       181  SAPE      H13Y           36.6465293219      -10.6309290502       -6.0258622798  MEMB      181             0.0000000000
     20899       181  SAPE      C314           37.9424477312      -11.1040463874       -4.4247240243  MEMB      181             0.0000000000
     20900       181  SAPE      H14X           38.4718180651      -10.2144598489       -4.8281146995  MEMB      181             0.0000000000
     20901       181  SAPE      H14Y           38.4548211637      -11.9639580430       -4.9067467914  MEMB      181             0.0000000000
     20902       181  SAPE      C315           38.1240978236      -11.1473174026       -2.9077138394  MEMB      181             0.0000000000
     20903       181  SAPE      H15X           37.4095943293      -11.8252423985       -2.3936866924  MEMB      181             0.0000000000
     20904       181  SAPE      H15Y           37.8728386840      -10.0841847556       -2.7053805461  MEMB      181             0.0000000000
     20905       181  SAPE      C316           39.6348198687      -11.4032548002       -2.5544558463  MEMB      181             0.0000000000
     20906       181  SAPE      H16X           40.3506249321      -11.1002972603       -3.3482816072  MEMB      181             0.0000000000
     20907       181  SAPE      H16Y           39.7524566815      -12.5046107475       -2.4678663848  MEMB      181             0.0000000000
     20908       181  SAPE      C317           40.0165949666      -10.5971404064       -1.2842549494  MEMB      181             0.0000000000
     20909       181  SAPE      H17X           40.0361862700       -9.5206354449       -1.5582514384  MEMB      181             0.0000000000
     20910       181  SAPE      H17Y           41.0365512501      -10.8229105620       -0.9060518343  MEMB      181             0.0000000000
     20911       181  SAPE      C318           39.1202180862      -10.6894659367       -0.1027001463  MEMB      181             0.0000000000
     20912       181  SAPE      H18X           38.0500778313      -10.7064465222       -0.4007470071  MEMB      181             0.0000000000
     20913       181  SAPE      H18Y           39.3715670620       -9.7811576076        0.4856194928  MEMB      181             0.0000000000
     20914       181  SAPE      H18Z           39.4098720384      -11.5763387087        0.5005228041  MEMB      181             0.0000000000
     20915       182  SLPC      N              28.7084319226      -24.1610497429      -15.3817713312  MEMB      182             0.0000000000
     20916       182  SLPC      C13            27.3346700796      -24.0362862225      -15.9153731302  MEMB      182             0.0000000000
     20917       182  SLPC      H13A           26.6981638323      -24.8862169631      -15.7181995083  MEMB      182             0.0000000000
     20918       182  SLPC      H13B           26.8862504010      -23.1142583608      -15.5759849660  MEMB      182             0.0000000000
     20919       182  SLPC      H13C           27.4018149258      -24.0033025735      -16.9927790485  MEMB      182             0.0000000000
     20920       182  SLPC      C14            28.7325079192      -24.0340556391      -13.8588866194  MEMB      182             0.0000000000
     20921       182  SLPC      H14A           29.7453869604      -24.1842940954      -13.5155148805  MEMB      182             0.0000000000
     20922       182  SLPC      H14B           28.2929307008      -23.0571972905      -13.7213372639  MEMB      182             0.0000000000
     20923       182  SLPC      H14C           28.1584788203      -24.8401051478      -13.4262495575  MEMB      182             0.0000000000
     20924       182  SLPC      C15            29.4419508166      -22.9307394701      -15.9628444450  MEMB      182             0.0000000000
     20925       182  SLPC      H15A           29.5952683170      -23.0301770970      -17.0272719837  MEMB      182             0.0000000000
     20926       182  SLPC      H15B           28.7393547855      -22.1108171918      -15.9407939426  MEMB      182             0.0000000000
     20927       182  SLPC      H15C           30.4106364964      -22.7516886049      -15.5201383382  MEMB      182             0.0000000000
     20928       182  SLPC      C12            29.4612166851      -25.4322587476      -15.8261424224  MEMB      182             0.0000000000
     20929       182  SLPC      H12A           29.2276224289      -26.1636231725      -15.0665767956  MEMB      182             0.0000000000
     20930       182  SLPC      H12B           30.4802789572      -25.1128943833      -15.6651503481  MEMB      182             0.0000000000
     20931       182  SLPC      C11            29.2466297338      -26.0370108338      -17.2377860443  MEMB      182             0.0000000000
     20932       182  SLPC      H11A           28.1816665346      -26.3476693728      -17.2983311780  MEMB      182             0.0000000000
     20933       182  SLPC      H11B           29.8686489321      -26.9567811946      -17.1998959355  MEMB      182             0.0000000000
     20934       182  SLPC      P              31.0874167052      -24.8688945462      -18.6488384907  MEMB      182             0.0000000000
     20935       182  SLPC      O13            31.5756548423      -25.9300503938      -19.5780293428  MEMB      182             0.0000000000
     20936       182  SLPC      O14            31.3305951409      -23.4775956925      -19.0783773710  MEMB      182             0.0000000000
     20937       182  SLPC      O12            29.5526223023      -25.0857445446      -18.2634486163  MEMB      182             0.0000000000
     20938       182  SLPC      O11            31.7921138950      -24.9390421465      -17.2485021899  MEMB      182             0.0000000000
     20939       182  SLPC      C1             33.0410571855      -25.5736618777      -17.0789697869  MEMB      182             0.0000000000
     20940       182  SLPC      HA             33.0875662808      -26.5683534992      -17.5716629210  MEMB      182             0.0000000000
     20941       182  SLPC      HB             33.8630296365      -24.9901979838      -17.5461446295  MEMB      182             0.0000000000
     20942       182  SLPC      C2             33.2255493365      -25.7784187844      -15.6118785798  MEMB      182             0.0000000000
     20943       182  SLPC      HS             32.3515076378      -26.4316085503      -15.4027971508  MEMB      182             0.0000000000
     20944       182  SLPC      O21            33.1346806087      -24.5724670846      -14.8903414181  MEMB      182             0.0000000000
     20945       182  SLPC      C21            32.4666100623      -24.6439546263      -13.6719540922  MEMB      182             0.0000000000
     20946       182  SLPC      O22            31.9692167747      -25.6240205229      -13.2675177021  MEMB      182             0.0000000000
     20947       182  SLPC      C22            32.4736558190      -23.3035928024      -12.9967307641  MEMB      182             0.0000000000
     20948       182  SLPC      H2R            31.4049416208      -23.0579693011      -12.8182925631  MEMB      182             0.0000000000
     20949       182  SLPC      H2S            33.0383434573      -23.5147035507      -12.0635206119  MEMB      182             0.0000000000
     20950       182  SLPC      C3             34.5855717374      -26.3998650101      -15.2284082662  MEMB      182             0.0000000000
     20951       182  SLPC      HX             35.3939296961      -25.7065010462      -15.5448337857  MEMB      182             0.0000000000
     20952       182  SLPC      HY             34.7824198516      -27.3250897816      -15.8111010656  MEMB      182             0.0000000000
     20953       182  SLPC      O31            34.6701234556      -26.5696848698      -13.7756456731  MEMB      182             0.0000000000
     20954       182  SLPC      C31            34.1167565543      -27.6792978038      -13.3338890466  MEMB      182             0.0000000000
     20955       182  SLPC      O32            33.7370640990      -28.6176928312      -14.0360792190  MEMB      182             0.0000000000
     20956       182  SLPC      C32            34.0487913279      -27.6067604774      -11.8111670774  MEMB      182             0.0000000000
     20957       182  SLPC      H2X            33.8319308871      -26.5537836621      -11.5309308355  MEMB      182             0.0000000000
     20958       182  SLPC      H2Y            35.0819562315      -27.7620514547      -11.4333107989  MEMB      182             0.0000000000
     20959       182  SLPC      C23            33.2417106996      -22.2223488632      -13.7210472698  MEMB      182             0.0000000000
     20960       182  SLPC      H3R            32.5582262268      -21.9019425131      -14.5362219584  MEMB      182             0.0000000000
     20961       182  SLPC      H3S            34.1689761438      -22.6830557950      -14.1238485801  MEMB      182             0.0000000000
     20962       182  SLPC      C24            33.4963856433      -20.8913256922      -13.0198264115  MEMB      182             0.0000000000
     20963       182  SLPC      H4R            34.4426305343      -20.4248293392      -13.3681408084  MEMB      182             0.0000000000
     20964       182  SLPC      H4S            33.5730017951      -20.9659859893      -11.9139890343  MEMB      182             0.0000000000
     20965       182  SLPC      C25            32.4562391314      -19.7549076714      -13.2539795557  MEMB      182             0.0000000000
     20966       182  SLPC      H5R            32.2183430076      -19.5815237533      -14.3252705110  MEMB      182             0.0000000000
     20967       182  SLPC      H5S            32.9175826898      -18.8417660520      -12.8207862242  MEMB      182             0.0000000000
     20968       182  SLPC      C26            31.0764905546      -20.0287516189      -12.5663632094  MEMB      182             0.0000000000
     20969       182  SLPC      H6R            30.4789074751      -20.7129734610      -13.2059380870  MEMB      182             0.0000000000
     20970       182  SLPC      H6S            30.5128700317      -19.0778813159      -12.6781606056  MEMB      182             0.0000000000
     20971       182  SLPC      C27            31.1237981399      -20.4239859188      -11.0733373513  MEMB      182             0.0000000000
     20972       182  SLPC      H7R            31.6517761558      -19.5939794927      -10.5569561307  MEMB      182             0.0000000000
     20973       182  SLPC      H7S            31.6675787905      -21.3855283034      -10.9547624882  MEMB      182             0.0000000000
     20974       182  SLPC      C28            29.6974053600      -20.6879726731      -10.3962312222  MEMB      182             0.0000000000
     20975       182  SLPC      H8R            28.8965585240      -19.9435868370      -10.5933484534  MEMB      182             0.0000000000
     20976       182  SLPC      H8S            29.8313096822      -20.5745105838       -9.2991822915  MEMB      182             0.0000000000
     20977       182  SLPC      C29            29.2182972680      -22.0417925997      -10.8877733140  MEMB      182             0.0000000000
     20978       182  SLPC      H9R            28.7681390111      -21.9197403733      -11.8839962872  MEMB      182             0.0000000000
     20979       182  SLPC      C210           29.3297209870      -23.2137405231      -10.2156373856  MEMB      182             0.0000000000
     20980       182  SLPC      H10R           28.8927461649      -24.0930082596      -10.7115617573  MEMB      182             0.0000000000
     20981       182  SLPC      C211           29.9884535332      -23.3984184470       -8.8520727948  MEMB      182             0.0000000000
     20982       182  SLPC      H11R           30.5649733595      -22.4787198861       -8.6152180701  MEMB      182             0.0000000000
     20983       182  SLPC      H11S           30.7914760769      -24.1572137189       -8.9691426186  MEMB      182             0.0000000000
     20984       182  SLPC      C212           29.1149856059      -23.7380322600       -7.6636316407  MEMB      182             0.0000000000
     20985       182  SLPC      H12R           28.1189141234      -23.2961847799       -7.8140069244  MEMB      182             0.0000000000
     20986       182  SLPC      C213           29.3825277948      -24.5036010365       -6.5400118409  MEMB      182             0.0000000000
     20987       182  SLPC      H13R           28.7121252010      -24.6664216020       -5.6832446335  MEMB      182             0.0000000000
     20988       182  SLPC      C214           30.7200733913      -25.1730775855       -6.4068617784  MEMB      182             0.0000000000
     20989       182  SLPC      H14R           31.3374122232      -24.6333908073       -5.6572272075  MEMB      182             0.0000000000
     20990       182  SLPC      H14S           31.3565692639      -25.2085934446       -7.3167696402  MEMB      182             0.0000000000
     20991       182  SLPC      C215           30.4384349027      -26.6433671367       -5.9255984845  MEMB      182             0.0000000000
     20992       182  SLPC      H15R           31.3958084787      -27.2070620140       -5.9233430212  MEMB      182             0.0000000000
     20993       182  SLPC      H15S           29.7468148788      -27.2034029957       -6.5906865094  MEMB      182             0.0000000000
     20994       182  SLPC      C216           29.8851115867      -26.9534248406       -4.4788551310  MEMB      182             0.0000000000
     20995       182  SLPC      H16R           29.8355276103      -28.0563757782       -4.3549117627  MEMB      182             0.0000000000
     20996       182  SLPC      H16S           28.8877065157      -26.4644480032       -4.4587123982  MEMB      182             0.0000000000
     20997       182  SLPC      C217           30.8328923156      -26.4501454741       -3.3440527991  MEMB      182             0.0000000000
     20998       182  SLPC      H17R           30.9709525217      -25.3544698102       -3.4655246148  MEMB      182             0.0000000000
     20999       182  SLPC      H17S           31.7728322023      -27.0038577681       -3.5543782392  MEMB      182             0.0000000000
     21000       182  SLPC      C218           30.3583859607      -26.8229619297       -1.9238622555  MEMB      182             0.0000000000
     21001       182  SLPC      H18R           29.4418179069      -26.2347884691       -1.7041434856  MEMB      182             0.0000000000
     21002       182  SLPC      H18S           31.1467891181      -26.6324238879       -1.1646282826  MEMB      182             0.0000000000
     21003       182  SLPC      H18T           30.1487174529      -27.9108954905       -2.0060836616  MEMB      182             0.0000000000
     21004       182  SLPC      C33            33.2654030058      -28.7075882067      -11.1477281538  MEMB      182             0.0000000000
     21005       182  SLPC      H3X            33.6239947040      -29.6782742895      -11.5520808118  MEMB      182             0.0000000000
     21006       182  SLPC      H3Y            32.2292832790      -28.4845453309      -11.4809376827  MEMB      182             0.0000000000
     21007       182  SLPC      C34            33.1373557462      -28.6913643602       -9.6181296115  MEMB      182             0.0000000000
     21008       182  SLPC      H4X            32.4149435202      -29.4836747691       -9.3271203175  MEMB      182             0.0000000000
     21009       182  SLPC      H4Y            32.7178093972      -27.7272768580       -9.2591907469  MEMB      182             0.0000000000
     21010       182  SLPC      C35            34.4729539661      -28.9434516983       -8.9549781646  MEMB      182             0.0000000000
     21011       182  SLPC      H5X            35.1835033059      -28.0932878027       -9.0365999077  MEMB      182             0.0000000000
     21012       182  SLPC      H5Y            34.8970435735      -29.9198585114       -9.2729394969  MEMB      182             0.0000000000
     21013       182  SLPC      C36            34.4435081924      -29.0863711905       -7.4426801473  MEMB      182             0.0000000000
     21014       182  SLPC      H6X            35.2713458852      -29.7838957296       -7.1927481565  MEMB      182             0.0000000000
     21015       182  SLPC      H6Y            33.5000922001      -29.5886610997       -7.1393781684  MEMB      182             0.0000000000
     21016       182  SLPC      C37            34.4602578374      -27.7582282314       -6.6833046832  MEMB      182             0.0000000000
     21017       182  SLPC      H7X            33.7490516613      -27.0430441649       -7.1491576284  MEMB      182             0.0000000000
     21018       182  SLPC      H7Y            35.4260883809      -27.2496184500       -6.8902064772  MEMB      182             0.0000000000
     21019       182  SLPC      C38            34.2823308832      -28.0005352116       -5.0862429093  MEMB      182             0.0000000000
     21020       182  SLPC      H8X            33.3812940707      -28.5853469390       -4.8026077343  MEMB      182             0.0000000000
     21021       182  SLPC      H8Y            34.1193363453      -26.9996882691       -4.6323055971  MEMB      182             0.0000000000
     21022       182  SLPC      C39            35.4450165556      -28.7549017569       -4.4536041758  MEMB      182             0.0000000000
     21023       182  SLPC      H9X            36.3966891345      -28.2663806772       -4.7535835571  MEMB      182             0.0000000000
     21024       182  SLPC      H9Y            35.3388093186      -29.7792422823       -4.8704591906  MEMB      182             0.0000000000
     21025       182  SLPC      C310           35.2901307919      -28.7616183078       -2.9231384464  MEMB      182             0.0000000000
     21026       182  SLPC      H10X           35.9836833020      -29.5431642621       -2.5456574959  MEMB      182             0.0000000000
     21027       182  SLPC      H10Y           34.2726471512      -29.1271612218       -2.6673527364  MEMB      182             0.0000000000
     21028       182  SLPC      C311           35.6045723258      -27.4276948828       -2.2278312702  MEMB      182             0.0000000000
     21029       182  SLPC      H11X           34.9750828336      -26.7076103299       -2.7931116546  MEMB      182             0.0000000000
     21030       182  SLPC      H11Y           36.6866638783      -27.1795523751       -2.2705477293  MEMB      182             0.0000000000
     21031       182  SLPC      C312           35.1445369171      -27.2564946880       -0.7991044169  MEMB      182             0.0000000000
     21032       182  SLPC      H12X           35.5708964452      -28.0585695587       -0.1594068922  MEMB      182             0.0000000000
     21033       182  SLPC      H12Y           34.0347636086      -27.2925927531       -0.8368057133  MEMB      182             0.0000000000
     21034       182  SLPC      C313           35.3730090708      -25.8847042833       -0.1141168947  MEMB      182             0.0000000000
     21035       182  SLPC      H13X           34.8656775252      -25.1570932456       -0.7830836542  MEMB      182             0.0000000000
     21036       182  SLPC      H13Y           36.4359096520      -25.5717166188       -0.1953699909  MEMB      182             0.0000000000
     21037       182  SLPC      C314           34.9611987882      -25.7036416008        1.3743991220  MEMB      182             0.0000000000
     21038       182  SLPC      H14X           35.8018863096      -26.0698636638        2.0016540401  MEMB      182             0.0000000000
     21039       182  SLPC      H14Y           33.9626102277      -26.1662390486        1.5265352007  MEMB      182             0.0000000000
     21040       182  SLPC      C315           34.9103411476      -24.1959666469        1.7645476672  MEMB      182             0.0000000000
     21041       182  SLPC      H15X           35.9483916442      -23.8064141748        1.6936904420  MEMB      182             0.0000000000
     21042       182  SLPC      H15Y           34.7091871174      -24.2863322756        2.8534423730  MEMB      182             0.0000000000
     21043       182  SLPC      C316           33.8995386246      -23.2987049579        1.1105975394  MEMB      182             0.0000000000
     21044       182  SLPC      H16X           34.4588316233      -22.8343178774        0.2704448548  MEMB      182             0.0000000000
     21045       182  SLPC      H16Y           33.7244115160      -22.3691906576        1.6933960598  MEMB      182             0.0000000000
     21046       182  SLPC      C317           32.5032561701      -23.9109732987        0.8355293492  MEMB      182             0.0000000000
     21047       182  SLPC      H17X           32.4957848531      -24.6832256483        0.0368493292  MEMB      182             0.0000000000
     21048       182  SLPC      H17Y           31.8787875215      -23.1285662830        0.3536592308  MEMB      182             0.0000000000
     21049       182  SLPC      C318           31.8394213074      -24.4598296503        2.1276939100  MEMB      182             0.0000000000
     21050       182  SLPC      H18X           31.5740850089      -23.6787897211        2.8719343408  MEMB      182             0.0000000000
     21051       182  SLPC      H18Y           32.5364843086      -25.1350988537        2.6684677831  MEMB      182             0.0000000000
     21052       182  SLPC      H18Z           30.8917412689      -25.0141406350        1.9575086467  MEMB      182             0.0000000000
     21053       183  OSM       N             -37.0381426884       21.2733756203      -22.4044677843  MEMB      183             0.0000000000
     21054       183  OSM       C15           -37.2377792114       20.0725237141      -23.3313056416  MEMB      183             0.0000000000
     21055       183  OSM       H15A          -36.4251927593       20.1740152334      -24.0354382716  MEMB      183             0.0000000000
     21056       183  OSM       H15B          -38.1879072752       20.2009624315      -23.8284575371  MEMB      183             0.0000000000
     21057       183  OSM       H15C          -37.2989283466       19.2042432965      -22.6919700668  MEMB      183             0.0000000000
     21058       183  OSM       C14           -35.7543513537       21.1183376834      -21.5992925618  MEMB      183             0.0000000000
     21059       183  OSM       H14A          -34.9020452735       20.9365582794      -22.2372035569  MEMB      183             0.0000000000
     21060       183  OSM       H14B          -35.8625908648       20.3270812101      -20.8722454293  MEMB      183             0.0000000000
     21061       183  OSM       H14C          -35.6142637118       22.0519678064      -21.0747827933  MEMB      183             0.0000000000
     21062       183  OSM       C13           -37.1052740790       22.5880702204      -23.0981719217  MEMB      183             0.0000000000
     21063       183  OSM       H13A          -38.0562181194       22.6939448734      -23.5990676106  MEMB      183             0.0000000000
     21064       183  OSM       H13B          -36.3118217514       22.7294006154      -23.8171010480  MEMB      183             0.0000000000
     21065       183  OSM       H13C          -37.0041953412       23.3106894465      -22.3019280180  MEMB      183             0.0000000000
     21066       183  OSM       C12           -38.2218062790       21.4233033502      -21.4476967618  MEMB      183             0.0000000000
     21067       183  OSM       H12A          -39.1981451407       21.4414974171      -21.9090331454  MEMB      183             0.0000000000
     21068       183  OSM       H12B          -38.1051365907       22.3819078094      -20.9641001276  MEMB      183             0.0000000000
     21069       183  OSM       C11           -38.1621383958       20.3736862530      -20.2737595786  MEMB      183             0.0000000000
     21070       183  OSM       H11A          -39.1829228342       20.3451023394      -19.8361489305  MEMB      183             0.0000000000
     21071       183  OSM       H11B          -37.2712841092       20.7070277341      -19.6996662213  MEMB      183             0.0000000000
     21072       183  OSM       P             -37.4346418580       17.8548152589      -19.7906479216  MEMB      183             0.0000000000
     21073       183  OSM       O13           -37.4228462641       16.5380957777      -20.3942419874  MEMB      183             0.0000000000
     21074       183  OSM       O14           -36.1486088733       18.2670309700      -19.2688359027  MEMB      183             0.0000000000
     21075       183  OSM       O11           -38.5556002816       18.0025358741      -18.6852558276  MEMB      183             0.0000000000
     21076       183  OSM       O12           -37.9815051196       19.0347243089      -20.7063241154  MEMB      183             0.0000000000
     21077       183  OSM       C1S           -38.6953554401       16.8404508608      -17.8284995505  MEMB      183             0.0000000000
     21078       183  OSM       H1S           -37.8668365600       16.1049869001      -17.9119872293  MEMB      183             0.0000000000
     21079       183  OSM       H1T           -39.4995935251       16.1609356641      -18.1831559395  MEMB      183             0.0000000000
     21080       183  OSM       NF            -38.5436827719       16.2020972219      -15.4286649478  MEMB      183             0.0000000000
     21081       183  OSM       HNF           -39.2895708940       16.0437665867      -14.7863320545  MEMB      183             0.0000000000
     21082       183  OSM       C2S           -38.8514844202       17.3028357655      -16.3212188029  MEMB      183             0.0000000000
     21083       183  OSM       H2S           -38.1916931156       18.1711328951      -16.1089539061  MEMB      183             0.0000000000
     21084       183  OSM       C3S           -40.3109919843       17.7803143667      -16.1137959188  MEMB      183             0.0000000000
     21085       183  OSM       H3S           -40.8967456769       16.8371402805      -16.1542483139  MEMB      183             0.0000000000
     21086       183  OSM       O3            -40.8398328824       18.5155891605      -17.1630722235  MEMB      183             0.0000000000
     21087       183  OSM       HO3           -40.0955303133       18.4743349527      -17.7679784378  MEMB      183             0.0000000000
     21088       183  OSM       C4S           -40.4566561695       18.5625098853      -14.8510067973  MEMB      183             0.0000000000
     21089       183  OSM       H4S           -39.8882977590       19.4900567678      -14.6878338949  MEMB      183             0.0000000000
     21090       183  OSM       C5S           -41.2612796441       18.1990735074      -13.8036092720  MEMB      183             0.0000000000
     21091       183  OSM       H5S           -41.8208777790       17.2536727552      -13.8589926250  MEMB      183             0.0000000000
     21092       183  OSM       C6S           -41.4411780101       18.9968241992      -12.4762345331  MEMB      183             0.0000000000
     21093       183  OSM       H6S           -41.6288704810       18.2644156560      -11.6621889839  MEMB      183             0.0000000000
     21094       183  OSM       H6T           -42.4091274980       19.5407040030      -12.5161035978  MEMB      183             0.0000000000
     21095       183  OSM       C7S           -40.3896271869       19.9676728086      -12.0416234399  MEMB      183             0.0000000000
     21096       183  OSM       H7S           -40.6957559817       20.3149917181      -11.0316849511  MEMB      183             0.0000000000
     21097       183  OSM       H7T           -40.2127957257       20.8334472176      -12.7150376056  MEMB      183             0.0000000000
     21098       183  OSM       C8S           -38.9630871028       19.4077385140      -11.7551144250  MEMB      183             0.0000000000
     21099       183  OSM       H8S           -38.5911421903       18.9058739742      -12.6738686353  MEMB      183             0.0000000000
     21100       183  OSM       H8T           -39.1287619721       18.6676003192      -10.9432845834  MEMB      183             0.0000000000
     21101       183  OSM       C9S           -37.9313926386       20.3516421981      -11.1425688092  MEMB      183             0.0000000000
     21102       183  OSM       H9S           -37.7428385184       21.2853194670      -11.7144211530  MEMB      183             0.0000000000
     21103       183  OSM       H9T           -36.9251429690       19.8828909290      -11.1878992185  MEMB      183             0.0000000000
     21104       183  OSM       C10S          -38.3245151745       20.8024714471       -9.7506143696  MEMB      183             0.0000000000
     21105       183  OSM       H10S          -39.4075101387       20.9636289332       -9.5622763961  MEMB      183             0.0000000000
     21106       183  OSM       H10T          -37.7376232289       21.7331822470       -9.5968077171  MEMB      183             0.0000000000
     21107       183  OSM       C11S          -37.7504073051       19.8180613163       -8.7045886451  MEMB      183             0.0000000000
     21108       183  OSM       H11S          -36.6846141804       19.5152301134       -8.7864384470  MEMB      183             0.0000000000
     21109       183  OSM       H11T          -38.3830923018       18.9079539145       -8.7803199579  MEMB      183             0.0000000000
     21110       183  OSM       C12S          -38.1409656192       20.3305964637       -7.3183438754  MEMB      183             0.0000000000
     21111       183  OSM       H12S          -39.2400392978       20.1844623784       -7.2476121231  MEMB      183             0.0000000000
     21112       183  OSM       H12T          -37.8693689855       21.4056875775       -7.3871563398  MEMB      183             0.0000000000
     21113       183  OSM       C13S          -37.4387791322       19.6109435443       -6.1951807118  MEMB      183             0.0000000000
     21114       183  OSM       H13S          -36.3967905461       19.8849215877       -5.9240410618  MEMB      183             0.0000000000
     21115       183  OSM       H13T          -37.3124480518       18.5094407608       -6.2662652896  MEMB      183             0.0000000000
     21116       183  OSM       C14S          -38.1297355170       19.8505312324       -4.8064716584  MEMB      183             0.0000000000
     21117       183  OSM       H14S          -39.2019715420       19.5596195031       -4.8075326648  MEMB      183             0.0000000000
     21118       183  OSM       H14T          -38.0475478379       20.9499396144       -4.6691120038  MEMB      183             0.0000000000
     21119       183  OSM       C15S          -37.3059193813       19.1939563165       -3.6065245192  MEMB      183             0.0000000000
     21120       183  OSM       H15S          -36.8786357322       18.2307152296       -3.9585415608  MEMB      183             0.0000000000
     21121       183  OSM       H15T          -38.0953000830       19.0617356884       -2.8359943014  MEMB      183             0.0000000000
     21122       183  OSM       C16S          -36.3325958708       20.2201271288       -3.0030600086  MEMB      183             0.0000000000
     21123       183  OSM       H16S          -36.9177484931       21.1607521556       -2.9185499099  MEMB      183             0.0000000000
     21124       183  OSM       H16T          -35.5053791927       20.2697516407       -3.7430404963  MEMB      183             0.0000000000
     21125       183  OSM       C17S          -35.5784391281       19.7609811270       -1.7685040347  MEMB      183             0.0000000000
     21126       183  OSM       H17S          -35.0141856394       18.8868298906       -2.1581186016  MEMB      183             0.0000000000
     21127       183  OSM       H17T          -36.1549378981       19.4976692583       -0.8560159423  MEMB      183             0.0000000000
     21128       183  OSM       C18S          -34.4781544128       20.7046405927       -1.3035164560  MEMB      183             0.0000000000
     21129       183  OSM       H18S          -34.0496697002       20.1934041516       -0.4150568336  MEMB      183             0.0000000000
     21130       183  OSM       H18T          -34.8129414560       21.6962049570       -0.9306358660  MEMB      183             0.0000000000
     21131       183  OSM       H18U          -33.7782858404       20.9308553007       -2.1361815593  MEMB      183             0.0000000000
     21132       183  OSM       C1F           -37.5016175244       15.3730748742      -15.3948548185  MEMB      183             0.0000000000
     21133       183  OSM       OF            -36.4954914683       15.4888594402      -16.1698517341  MEMB      183             0.0000000000
     21134       183  OSM       C2F           -37.6194071438       14.1385017190      -14.5446689183  MEMB      183             0.0000000000
     21135       183  OSM       H2F           -36.8642042670       13.4257704023      -14.9396421670  MEMB      183             0.0000000000
     21136       183  OSM       H2G           -38.6682654174       13.7838163453      -14.6364070615  MEMB      183             0.0000000000
     21137       183  OSM       C3F           -37.2849917439       14.4750183575      -13.1216499599  MEMB      183             0.0000000000
     21138       183  OSM       H3F           -36.3736285037       15.1063150095      -13.0495221726  MEMB      183             0.0000000000
     21139       183  OSM       H3G           -36.9627050828       13.6142139600      -12.4975759524  MEMB      183             0.0000000000
     21140       183  OSM       C4F           -38.4697387305       15.2241467018      -12.3856753794  MEMB      183             0.0000000000
     21141       183  OSM       H4F           -39.2643804734       15.2918065282      -13.1591659057  MEMB      183             0.0000000000
     21142       183  OSM       H4G           -38.3315410974       16.3161658894      -12.2349553971  MEMB      183             0.0000000000
     21143       183  OSM       C5F           -38.8849616367       14.5876996216      -11.0846291950  MEMB      183             0.0000000000
     21144       183  OSM       H5F           -38.1257311305       14.6100294556      -10.2738322947  MEMB      183             0.0000000000
     21145       183  OSM       H5G           -39.2131350655       13.5284288491      -11.1522201195  MEMB      183             0.0000000000
     21146       183  OSM       C6F           -40.0938170304       15.2920934563      -10.4126098021  MEMB      183             0.0000000000
     21147       183  OSM       H6F           -40.8741574576       15.4079066023      -11.1948988268  MEMB      183             0.0000000000
     21148       183  OSM       H6G           -39.8815986852       16.3645036437      -10.2145681134  MEMB      183             0.0000000000
     21149       183  OSM       C7F           -40.4302488213       14.5007119237       -9.1284280937  MEMB      183             0.0000000000
     21150       183  OSM       H7F           -40.0105724296       13.4801597523       -9.2575255800  MEMB      183             0.0000000000
     21151       183  OSM       H7G           -41.5324687516       14.3819044326       -9.0555088711  MEMB      183             0.0000000000
     21152       183  OSM       C8F           -39.9196091728       15.1394548846       -7.6974200294  MEMB      183             0.0000000000
     21153       183  OSM       H8F           -39.0223038604       15.7637412668       -7.8959920236  MEMB      183             0.0000000000
     21154       183  OSM       H8G           -39.4871094833       14.2612336242       -7.1720699670  MEMB      183             0.0000000000
     21155       183  OSM       C9F           -41.0253836366       15.8767449593       -6.8938671489  MEMB      183             0.0000000000
     21156       183  OSM       H9F           -41.4009832143       16.7676743126       -7.4184337138  MEMB      183             0.0000000000
     21157       183  OSM       C10F          -41.6416571578       15.3844357803       -5.8351037576  MEMB      183             0.0000000000
     21158       183  OSM       H10F          -42.4174216560       15.9756621930       -5.3265356303  MEMB      183             0.0000000000
     21159       183  OSM       C11F          -41.3435657092       14.0110735032       -5.1838136990  MEMB      183             0.0000000000
     21160       183  OSM       H11F          -40.9479226289       13.4024974504       -6.0248978479  MEMB      183             0.0000000000
     21161       183  OSM       H11G          -42.2941082043       13.5976853750       -4.7839388171  MEMB      183             0.0000000000
     21162       183  OSM       C12F          -40.3126214474       14.1088796222       -4.0807650108  MEMB      183             0.0000000000
     21163       183  OSM       H12F          -39.3413842086       14.5016728930       -4.4505380520  MEMB      183             0.0000000000
     21164       183  OSM       H12G          -40.0589324573       13.1121631974       -3.6606244386  MEMB      183             0.0000000000
     21165       183  OSM       C13F          -40.6955094718       14.9981890392       -2.8942617931  MEMB      183             0.0000000000
     21166       183  OSM       H13F          -41.5540133676       14.5079362262       -2.3873633503  MEMB      183             0.0000000000
     21167       183  OSM       H13G          -40.9971102221       16.0231021796       -3.1990746735  MEMB      183             0.0000000000
     21168       183  OSM       C14F          -39.5584969844       15.1254668097       -1.8473280534  MEMB      183             0.0000000000
     21169       183  OSM       H14F          -38.7221495916       15.5328609052       -2.4546791554  MEMB      183             0.0000000000
     21170       183  OSM       H14G          -39.5387874094       14.1631630668       -1.2924380236  MEMB      183             0.0000000000
     21171       183  OSM       C15F          -39.8867086442       16.3187822026       -0.9228897151  MEMB      183             0.0000000000
     21172       183  OSM       H15F          -40.6886410269       15.9870208161       -0.2292334357  MEMB      183             0.0000000000
     21173       183  OSM       H15G          -40.2815578813       17.2085941364       -1.4582856249  MEMB      183             0.0000000000
     21174       183  OSM       C16F          -38.7232395534       16.8302767128       -0.0982980204  MEMB      183             0.0000000000
     21175       183  OSM       H16F          -38.0937740240       17.4773928554       -0.7458592406  MEMB      183             0.0000000000
     21176       183  OSM       H16G          -38.1327800245       16.0065279207        0.3568031430  MEMB      183             0.0000000000
     21177       183  OSM       C17F          -39.0883849479       17.6924262343        1.1380030346  MEMB      183             0.0000000000
     21178       183  OSM       H17F          -39.8444014406       18.4858131655        0.9555288418  MEMB      183             0.0000000000
     21179       183  OSM       H17G          -38.2142277964       18.1844166306        1.6156185832  MEMB      183             0.0000000000
     21180       183  OSM       C18F          -39.7317709686       16.8030261511        2.2404929091  MEMB      183             0.0000000000
     21181       183  OSM       H18F          -39.0646279613       16.0363861188        2.6893842513  MEMB      183             0.0000000000
     21182       183  OSM       H18G          -40.5070155832       16.1927916675        1.7296795352  MEMB      183             0.0000000000
     21183       183  OSM       H18H          -40.2237262802       17.4177562126        3.0243346391  MEMB      183             0.0000000000
     21184       184  CHL1      C3            -34.0119930477      -20.2978157590      -17.2811650000  MEMB      184             0.0000000000
     21185       184  CHL1      H3            -34.4375736601      -21.2586601531      -16.9206150000  MEMB      184             0.0000000000
     21186       184  CHL1      O3            -34.0736292195      -20.2442214242      -18.7188350000  MEMB      184             0.0000000000
     21187       184  CHL1      H3'           -33.6729631153      -21.0711887654      -18.9966950000  MEMB      184             0.0000000000
     21188       184  CHL1      C4            -34.9862709293      -19.2422101974      -16.8070650000  MEMB      184             0.0000000000
     21189       184  CHL1      H4A           -34.6818458225      -18.1875113901      -16.9780850000  MEMB      184             0.0000000000
     21190       184  CHL1      H4B           -36.0146608768      -19.2260068525      -17.2271650000  MEMB      184             0.0000000000
     21191       184  CHL1      C5            -35.1488267966      -19.4734227241      -15.2923850000  MEMB      184             0.0000000000
     21192       184  CHL1      C6            -36.3313979906      -19.7426372066      -14.7559050000  MEMB      184             0.0000000000
     21193       184  CHL1      H6            -37.1732762272      -19.7137909460      -15.4632950000  MEMB      184             0.0000000000
     21194       184  CHL1      C7            -36.5650484668      -19.8667785497      -13.2769450000  MEMB      184             0.0000000000
     21195       184  CHL1      H7A           -37.5229103687      -19.3445949470      -13.0668350000  MEMB      184             0.0000000000
     21196       184  CHL1      H7B           -36.7584639362      -20.9281487134      -13.0115950000  MEMB      184             0.0000000000
     21197       184  CHL1      C8            -35.3965919431      -19.3359039269      -12.4655350000  MEMB      184             0.0000000000
     21198       184  CHL1      H8            -35.3345402428      -18.2275791108      -12.5110850000  MEMB      184             0.0000000000
     21199       184  CHL1      C14           -35.5811819693      -19.7516194098      -11.0416750000  MEMB      184             0.0000000000
     21200       184  CHL1      H14           -35.7143483928      -20.8543917641      -11.0635250000  MEMB      184             0.0000000000
     21201       184  CHL1      C15           -36.8145775901      -19.4180770298      -10.2225850000  MEMB      184             0.0000000000
     21202       184  CHL1      H15A          -36.9190565965      -18.3158169862      -10.3144150000  MEMB      184             0.0000000000
     21203       184  CHL1      H15B          -37.7730232077      -19.9277436031      -10.4591050000  MEMB      184             0.0000000000
     21204       184  CHL1      C16           -36.3823536003      -19.6815301830       -8.7776250000  MEMB      184             0.0000000000
     21205       184  CHL1      H16A          -36.6714633948      -18.8274035369       -8.1286050000  MEMB      184             0.0000000000
     21206       184  CHL1      H16B          -36.8166522743      -20.6506853835       -8.4513650000  MEMB      184             0.0000000000
     21207       184  CHL1      C17           -34.8566295675      -19.8421929356       -8.7773450000  MEMB      184             0.0000000000
     21208       184  CHL1      H17           -34.6348332870      -20.9232776354       -8.6493250000  MEMB      184             0.0000000000
     21209       184  CHL1      C13           -34.3580837025      -19.4055578494      -10.1705450000  MEMB      184             0.0000000000
     21210       184  CHL1      C18           -34.2867152656      -17.8236553040      -10.1258350000  MEMB      184             0.0000000000
     21211       184  CHL1      H18A          -33.9766932925      -17.3584755999      -11.0859450000  MEMB      184             0.0000000000
     21212       184  CHL1      H18B          -35.1999695079      -17.3557068744       -9.7000150000  MEMB      184             0.0000000000
     21213       184  CHL1      H18C          -33.5183271974      -17.5102563624       -9.3871250000  MEMB      184             0.0000000000
     21214       184  CHL1      C12           -33.0348413098      -20.0781100147      -10.6626650000  MEMB      184             0.0000000000
     21215       184  CHL1      H12A          -32.1621851607      -19.7632840090      -10.0513750000  MEMB      184             0.0000000000
     21216       184  CHL1      H12B          -33.1276777091      -21.1812593882      -10.7563150000  MEMB      184             0.0000000000
     21217       184  CHL1      C11           -32.8755769298      -19.6470935205      -12.1714750000  MEMB      184             0.0000000000
     21218       184  CHL1      H11A          -32.4646429467      -18.6150358302      -12.1891250000  MEMB      184             0.0000000000
     21219       184  CHL1      H11B          -32.0552277687      -20.3289193047      -12.4820450000  MEMB      184             0.0000000000
     21220       184  CHL1      C9            -34.1097206676      -19.8720525488      -13.0962650000  MEMB      184             0.0000000000
     21221       184  CHL1      H9            -34.4502848765      -20.9257502598      -13.1860350000  MEMB      184             0.0000000000
     21222       184  CHL1      C10           -33.8598945347      -19.3504735954      -14.5620950000  MEMB      184             0.0000000000
     21223       184  CHL1      C19           -33.3512705420      -17.8368228204      -14.4807850000  MEMB      184             0.0000000000
     21224       184  CHL1      H19A          -33.3076348995      -17.3149578796      -15.4606150000  MEMB      184             0.0000000000
     21225       184  CHL1      H19B          -34.0515316313      -17.1662992490      -13.9382350000  MEMB      184             0.0000000000
     21226       184  CHL1      H19C          -32.3349341668      -17.7437730144      -14.0417950000  MEMB      184             0.0000000000
     21227       184  CHL1      C1            -32.7447472546      -20.2874479234      -15.1693950000  MEMB      184             0.0000000000
     21228       184  CHL1      H1A           -31.7731971373      -20.1767371292      -14.6419950000  MEMB      184             0.0000000000
     21229       184  CHL1      H1B           -33.0308426837      -21.3416270048      -14.9665050000  MEMB      184             0.0000000000
     21230       184  CHL1      C2            -32.6364285827      -20.1679644576      -16.6791150000  MEMB      184             0.0000000000
     21231       184  CHL1      H2A           -31.9247449423      -20.9011700697      -17.1152750000  MEMB      184             0.0000000000
     21232       184  CHL1      H2B           -32.2692769036      -19.1380264989      -16.8759750000  MEMB      184             0.0000000000
     21233       184  CHL1      C20           -34.2296062037      -19.3502555194       -7.4131350000  MEMB      184             0.0000000000
     21234       184  CHL1      H20           -34.6308776906      -18.3220469766       -7.2862650000  MEMB      184             0.0000000000
     21235       184  CHL1      C21           -32.7326332161      -19.4786455095       -7.4203350000  MEMB      184             0.0000000000
     21236       184  CHL1      H21A          -32.3083291244      -18.6304747080       -7.9990450000  MEMB      184             0.0000000000
     21237       184  CHL1      H21B          -32.4805148463      -20.4700204717       -7.8538550000  MEMB      184             0.0000000000
     21238       184  CHL1      H21C          -32.3084277596      -19.4908975432       -6.3935850000  MEMB      184             0.0000000000
     21239       184  CHL1      C22           -34.8063673528      -20.0091440012       -6.2120950000  MEMB      184             0.0000000000
     21240       184  CHL1      H22A          -35.9144148392      -19.9894426290       -6.1336650000  MEMB      184             0.0000000000
     21241       184  CHL1      H22B          -34.4710339633      -21.0666185979       -6.2723550000  MEMB      184             0.0000000000
     21242       184  CHL1      C23           -34.3709572479      -19.4458114931       -4.8058750000  MEMB      184             0.0000000000
     21243       184  CHL1      H23A          -33.2666957588      -19.3728180266       -4.7078850000  MEMB      184             0.0000000000
     21244       184  CHL1      H23B          -34.6375279586      -18.3672933868       -4.7997250000  MEMB      184             0.0000000000
     21245       184  CHL1      C24           -35.0117312637      -20.0103548324       -3.5231150000  MEMB      184             0.0000000000
     21246       184  CHL1      H24A          -36.0813962329      -20.2097912146       -3.7475250000  MEMB      184             0.0000000000
     21247       184  CHL1      H24B          -34.4640839141      -20.9362036306       -3.2452450000  MEMB      184             0.0000000000
     21248       184  CHL1      C25           -34.9888409092      -18.9207217016       -2.3584650000  MEMB      184             0.0000000000
     21249       184  CHL1      H25           -35.5418098747      -18.0115945931       -2.6778950000  MEMB      184             0.0000000000
     21250       184  CHL1      C26           -35.6601829219      -19.4498014813       -1.0574750000  MEMB      184             0.0000000000
     21251       184  CHL1      H26A          -35.4434050951      -18.7111977552       -0.2563550000  MEMB      184             0.0000000000
     21252       184  CHL1      H26B          -36.7170100738      -19.7887403410       -1.0069450000  MEMB      184             0.0000000000
     21253       184  CHL1      H26C          -35.1060800830      -20.3375818258       -0.6844750000  MEMB      184             0.0000000000
     21254       184  CHL1      C27           -33.5424294738      -18.4607378086       -1.9461350000  MEMB      184             0.0000000000
     21255       184  CHL1      H27A          -33.6769832720      -17.8405390750       -1.0342350000  MEMB      184             0.0000000000
     21256       184  CHL1      H27B          -32.8570812084      -19.3062769822       -1.7232550000  MEMB      184             0.0000000000
     21257       184  CHL1      H27C          -33.1170077098      -17.8686946484       -2.7844850000  MEMB      184             0.0000000000
     21258       185  SAPS      N              21.4590316604       37.2270813157      -21.1732478478  MEMB      185             0.0000000000
     21259       185  SAPS      HN1            20.6124876151       36.7720050210      -20.7759207184  MEMB      185             0.0000000000
     21260       185  SAPS      HN2            21.7000165060       38.0349561887      -20.5642613957  MEMB      185             0.0000000000
     21261       185  SAPS      HN3            21.2460825999       37.4554568380      -22.1652647291  MEMB      185             0.0000000000
     21262       185  SAPS      C12            22.6055216094       36.2989367577      -21.0873960998  MEMB      185             0.0000000000
     21263       185  SAPS      H12A           22.3437901352       35.4025982788      -21.6300506318  MEMB      185             0.0000000000
     21264       185  SAPS      C13            23.8553318464       36.8809400910      -21.8087160460  MEMB      185             0.0000000000
     21265       185  SAPS      O13A           23.6515253274       37.7914427778      -22.6251913093  MEMB      185             0.0000000000
     21266       185  SAPS      O13B           24.8354751249       36.0718835215      -22.0388557677  MEMB      185             0.0000000000
     21267       185  SAPS      C11            22.8902736298       35.8754929360      -19.6029854434  MEMB      185             0.0000000000
     21268       185  SAPS      H11A           21.9840392638       35.4415471346      -19.1289061054  MEMB      185             0.0000000000
     21269       185  SAPS      H11B           23.0218107611       36.7994686054      -19.0002517525  MEMB      185             0.0000000000
     21270       185  SAPS      P              24.0842985278       33.9894277906      -18.3458809487  MEMB      185             0.0000000000
     21271       185  SAPS      O13            22.8889081378       33.1267933953      -18.5405467667  MEMB      185             0.0000000000
     21272       185  SAPS      O14            25.3993149941       33.3142763335      -18.3130911454  MEMB      185             0.0000000000
     21273       185  SAPS      O12            24.0864629483       35.1458170378      -19.4138710700  MEMB      185             0.0000000000
     21274       185  SAPS      O11            23.9966571888       34.8271583242      -17.0502175546  MEMB      185             0.0000000000
     21275       185  SAPS      C1             25.0456719793       35.7065549616      -16.7254962289  MEMB      185             0.0000000000
     21276       185  SAPS      HA             25.5847472940       36.1437471354      -17.5930109991  MEMB      185             0.0000000000
     21277       185  SAPS      HB             24.6707397806       36.5973199370      -16.1775137724  MEMB      185             0.0000000000
     21278       185  SAPS      C2             26.1493961822       35.1895153615      -15.8079389222  MEMB      185             0.0000000000
     21279       185  SAPS      HS             26.9680089591       34.9969011978      -16.5339513033  MEMB      185             0.0000000000
     21280       185  SAPS      O21            25.6608737204       33.9355627490      -15.2147044301  MEMB      185             0.0000000000
     21281       185  SAPS      C21            26.5485611801       33.0661562608      -14.7803392508  MEMB      185             0.0000000000
     21282       185  SAPS      O22            27.7079522335       33.0287147965      -15.0535004812  MEMB      185             0.0000000000
     21283       185  SAPS      C22            25.7195602538       32.1382805494      -13.8816292076  MEMB      185             0.0000000000
     21284       185  SAPS      H2R            25.1802340308       32.7502157210      -13.1273194403  MEMB      185             0.0000000000
     21285       185  SAPS      H2S            25.0018856969       31.5533684875      -14.4957481825  MEMB      185             0.0000000000
     21286       185  SAPS      C3             26.5046716729       36.2208979449      -14.6648529087  MEMB      185             0.0000000000
     21287       185  SAPS      HX             26.8265169175       37.1417710397      -15.1965764680  MEMB      185             0.0000000000
     21288       185  SAPS      HY             27.3902053829       35.9169156874      -14.0667343049  MEMB      185             0.0000000000
     21289       185  SAPS      O31            25.3576521233       36.5549318020      -13.8178389686  MEMB      185             0.0000000000
     21290       185  SAPS      C31            25.2146688371       35.8082016132      -12.7058305833  MEMB      185             0.0000000000
     21291       185  SAPS      O32            25.9543661607       34.9423326422      -12.3441029374  MEMB      185             0.0000000000
     21292       185  SAPS      C32            23.8235986049       36.2043977618      -12.0921564273  MEMB      185             0.0000000000
     21293       185  SAPS      H2X            23.2882784536       36.9331841312      -12.7376203273  MEMB      185             0.0000000000
     21294       185  SAPS      H2Y            24.0545867912       36.5870861258      -11.0750457299  MEMB      185             0.0000000000
     21295       185  SAPS      C23            26.5250492539       31.0531100364      -13.0583522214  MEMB      185             0.0000000000
     21296       185  SAPS      H3R            27.2097010232       31.7112077183      -12.4817410907  MEMB      185             0.0000000000
     21297       185  SAPS      H3S            27.1414806091       30.3252090505      -13.6279963036  MEMB      185             0.0000000000
     21298       185  SAPS      C24            25.5364308334       30.3618804831      -12.0544864690  MEMB      185             0.0000000000
     21299       185  SAPS      H4R            25.0601900458       29.5215155924      -12.6033969398  MEMB      185             0.0000000000
     21300       185  SAPS      H4S            24.6679879628       31.0435145059      -11.9299763860  MEMB      185             0.0000000000
     21301       185  SAPS      C25            26.0891087815       29.8982970699      -10.7507113074  MEMB      185             0.0000000000
     21302       185  SAPS      H5R            27.1418009827       29.6175804366      -10.9024917074  MEMB      185             0.0000000000
     21303       185  SAPS      C26            25.5572015896       29.7520115549       -9.4719685357  MEMB      185             0.0000000000
     21304       185  SAPS      H6R            26.2313750279       29.4961576396       -8.6412893516  MEMB      185             0.0000000000
     21305       185  SAPS      C27            24.0721265208       30.0733597831       -9.1670420420  MEMB      185             0.0000000000
     21306       185  SAPS      H7R            23.7149518421       29.3802392423       -8.3756305877  MEMB      185             0.0000000000
     21307       185  SAPS      H7S            23.3935660917       29.9205855148      -10.0333775978  MEMB      185             0.0000000000
     21308       185  SAPS      C28            23.9476904558       31.4152249211       -8.5598244456  MEMB      185             0.0000000000
     21309       185  SAPS      H8R            24.8635660479       31.8913721481       -8.1797515620  MEMB      185             0.0000000000
     21310       185  SAPS      C29            22.8327691576       32.2119169457       -8.4741299487  MEMB      185             0.0000000000
     21311       185  SAPS      H9R            22.8918282439       33.1610561971       -7.9212772716  MEMB      185             0.0000000000
     21312       185  SAPS      C210           21.4153898901       31.8535126071       -8.9207031063  MEMB      185             0.0000000000
     21313       185  SAPS      H10R           21.4081434153       31.5340892621       -9.9847687300  MEMB      185             0.0000000000
     21314       185  SAPS      H10S           20.8020171185       32.7725522203       -8.8046816446  MEMB      185             0.0000000000
     21315       185  SAPS      C211           20.8422873106       30.6934169036       -8.2056184330  MEMB      185             0.0000000000
     21316       185  SAPS      H11R           20.4879561114       29.9057417840       -8.8868064313  MEMB      185             0.0000000000
     21317       185  SAPS      C212           20.4067638571       30.6185926770       -6.9208155314  MEMB      185             0.0000000000
     21318       185  SAPS      H12R           20.0161880191       29.6429617531       -6.5958603294  MEMB      185             0.0000000000
     21319       185  SAPS      C213           20.4434675523       31.7053466756       -5.9002435110  MEMB      185             0.0000000000
     21320       185  SAPS      H13R           19.4148016075       32.1099367554       -5.7885560062  MEMB      185             0.0000000000
     21321       185  SAPS      H13S           21.0308230857       32.6045099226       -6.1845674885  MEMB      185             0.0000000000
     21322       185  SAPS      C214           20.9297115064       31.0508674468       -4.6285227886  MEMB      185             0.0000000000
     21323       185  SAPS      H14R           20.3116341205       30.1970128031       -4.3140190115  MEMB      185             0.0000000000
     21324       185  SAPS      C215           22.0159797106       31.4205402063       -3.9161666304  MEMB      185             0.0000000000
     21325       185  SAPS      H15R           22.0723193054       30.8238150224       -2.9938090042  MEMB      185             0.0000000000
     21326       185  SAPS      C216           23.0130950793       32.5201505231       -4.0962278285  MEMB      185             0.0000000000
     21327       185  SAPS      H16R           22.8154008008       33.3476024238       -3.3816920506  MEMB      185             0.0000000000
     21328       185  SAPS      H16S           22.9653728986       33.0408703211       -5.0764803037  MEMB      185             0.0000000000
     21329       185  SAPS      C217           24.5366087766       32.1870349003       -4.0590363039  MEMB      185             0.0000000000
     21330       185  SAPS      H17R           25.0105705276       33.1475711860       -4.3540801874  MEMB      185             0.0000000000
     21331       185  SAPS      H17S           24.7550997898       31.3851424515       -4.7962957200  MEMB      185             0.0000000000
     21332       185  SAPS      C218           24.9490765426       31.6407055440       -2.6601516331  MEMB      185             0.0000000000
     21333       185  SAPS      H18R           25.9310210577       31.1420610838       -2.8066427909  MEMB      185             0.0000000000
     21334       185  SAPS      H18S           24.3778603787       30.7378348751       -2.3554256376  MEMB      185             0.0000000000
     21335       185  SAPS      C219           25.0266712962       32.7267192513       -1.6307613557  MEMB      185             0.0000000000
     21336       185  SAPS      H19R           24.0618224112       33.2774497969       -1.6216292195  MEMB      185             0.0000000000
     21337       185  SAPS      H19S           25.8127814662       33.4468157677       -1.9435106237  MEMB      185             0.0000000000
     21338       185  SAPS      C220           25.4068278989       32.2564308829       -0.2171728574  MEMB      185             0.0000000000
     21339       185  SAPS      H20R           26.3996371903       31.7593648264       -0.1774740059  MEMB      185             0.0000000000
     21340       185  SAPS      H20S           24.6847108527       31.5291862691        0.2117595976  MEMB      185             0.0000000000
     21341       185  SAPS      H20T           25.4040183659       33.1275296449        0.4723925270  MEMB      185             0.0000000000
     21342       185  SAPS      C33            23.0003827358       34.9611639064      -11.8188416649  MEMB      185             0.0000000000
     21343       185  SAPS      H3X            23.5735720919       34.3197277430      -11.1157527551  MEMB      185             0.0000000000
     21344       185  SAPS      H3Y            22.9183577732       34.2620791307      -12.6784190757  MEMB      185             0.0000000000
     21345       185  SAPS      C34            21.7277103210       35.1761263585      -10.9908157985  MEMB      185             0.0000000000
     21346       185  SAPS      H4X            21.3143087125       34.1452764579      -10.9630922069  MEMB      185             0.0000000000
     21347       185  SAPS      H4Y            20.9839118630       35.7371955660      -11.5960311165  MEMB      185             0.0000000000
     21348       185  SAPS      C35            21.8534095138       35.9212446001       -9.6650779368  MEMB      185             0.0000000000
     21349       185  SAPS      H5X            22.3822596769       36.8884321027       -9.8035952884  MEMB      185             0.0000000000
     21350       185  SAPS      H5Y            22.5984259058       35.2660249503       -9.1651191292  MEMB      185             0.0000000000
     21351       185  SAPS      C36            20.5707621581       36.0422569977       -8.8704669481  MEMB      185             0.0000000000
     21352       185  SAPS      H6X            20.1965379322       35.0311353057       -8.6023050257  MEMB      185             0.0000000000
     21353       185  SAPS      H6Y            19.8928474606       36.6337932847       -9.5222624819  MEMB      185             0.0000000000
     21354       185  SAPS      C37            20.7691210169       36.7730642917       -7.5891387572  MEMB      185             0.0000000000
     21355       185  SAPS      H7X            19.8412300960       36.9703839106       -7.0108621910  MEMB      185             0.0000000000
     21356       185  SAPS      H7Y            21.1472264834       37.7801236252       -7.8669682475  MEMB      185             0.0000000000
     21357       185  SAPS      C38            21.6911823876       36.2097843654       -6.5569176492  MEMB      185             0.0000000000
     21358       185  SAPS      H8X            21.5564156376       35.1069947432       -6.5532327254  MEMB      185             0.0000000000
     21359       185  SAPS      H8Y            21.2269613684       36.4742536382       -5.5828149679  MEMB      185             0.0000000000
     21360       185  SAPS      C39            23.1532582106       36.3730460667       -6.6367223459  MEMB      185             0.0000000000
     21361       185  SAPS      H9X            23.5826491166       36.7132924767       -7.6032503232  MEMB      185             0.0000000000
     21362       185  SAPS      H9Y            23.6988895454       35.4382858312       -6.3860609376  MEMB      185             0.0000000000
     21363       185  SAPS      C310           23.8439429683       37.3837036653       -5.6837663187  MEMB      185             0.0000000000
     21364       185  SAPS      H10X           23.6234126643       38.4405707796       -5.9459087613  MEMB      185             0.0000000000
     21365       185  SAPS      H10Y           24.9230640891       37.3771307060       -5.9479159433  MEMB      185             0.0000000000
     21366       185  SAPS      C311           23.7512220803       37.0484987611       -4.1963256661  MEMB      185             0.0000000000
     21367       185  SAPS      H11X           24.2711755289       36.0838237099       -4.0136445949  MEMB      185             0.0000000000
     21368       185  SAPS      H11Y           22.7048526214       36.9164684710       -3.8470402847  MEMB      185             0.0000000000
     21369       185  SAPS      C312           24.3909248427       38.1202248558       -3.3371331482  MEMB      185             0.0000000000
     21370       185  SAPS      H12X           24.2101501051       39.1270402546       -3.7706815881  MEMB      185             0.0000000000
     21371       185  SAPS      H12Y           25.4770016232       37.9863894736       -3.5290881093  MEMB      185             0.0000000000
     21372       185  SAPS      C313           24.0624108910       38.0138556055       -1.8239932358  MEMB      185             0.0000000000
     21373       185  SAPS      H13X           23.1014881114       38.5396796316       -1.6383652598  MEMB      185             0.0000000000
     21374       185  SAPS      H13Y           24.7109140852       38.7238085863       -1.2674587524  MEMB      185             0.0000000000
     21375       185  SAPS      C314           24.1116236057       36.6257360651       -1.2085058049  MEMB      185             0.0000000000
     21376       185  SAPS      H14X           25.1147427190       36.1670590443       -1.3415039240  MEMB      185             0.0000000000
     21377       185  SAPS      H14Y           23.3966819929       35.9658481875       -1.7449081774  MEMB      185             0.0000000000
     21378       185  SAPS      C315           23.8879720532       36.4082086884        0.3304729464  MEMB      185             0.0000000000
     21379       185  SAPS      H15X           24.5275623732       37.1043594487        0.9140988656  MEMB      185             0.0000000000
     21380       185  SAPS      H15Y           24.3507063324       35.4605950642        0.6800809603  MEMB      185             0.0000000000
     21381       185  SAPS      C316           22.4323584295       36.3790534823        0.6639160227  MEMB      185             0.0000000000
     21382       185  SAPS      H16X           22.0199508766       35.6159704506       -0.0303066238  MEMB      185             0.0000000000
     21383       185  SAPS      H16Y           21.8888134068       37.3350936155        0.5062211476  MEMB      185             0.0000000000
     21384       185  SAPS      C317           22.0743949274       36.0656124182        2.1282637556  MEMB      185             0.0000000000
     21385       185  SAPS      H17X           22.7673043987       36.6350893667        2.7839257217  MEMB      185             0.0000000000
     21386       185  SAPS      H17Y           22.2795836404       35.0066605796        2.3944199432  MEMB      185             0.0000000000
     21387       185  SAPS      C318           20.6655487259       36.4107801126        2.5565512452  MEMB      185             0.0000000000
     21388       185  SAPS      H18X           20.6760534699       36.6940116287        3.6307904049  MEMB      185             0.0000000000
     21389       185  SAPS      H18Y           19.9239143625       35.5887911205        2.4636357481  MEMB      185             0.0000000000
     21390       185  SAPS      H18Z           20.3211513290       37.3900036229        2.1605286154  MEMB      185             0.0000000000
     21391       186  SAPS      N             -24.7300804208      -35.8133457382      -21.8153972591  MEMB      186             0.0000000000
     21392       186  SAPS      HN1           -24.7972136243      -35.3858000873      -22.7610704994  MEMB      186             0.0000000000
     21393       186  SAPS      HN2           -24.0257712264      -36.5621974842      -21.6580136318  MEMB      186             0.0000000000
     21394       186  SAPS      HN3           -25.5904968879      -36.3645685646      -21.6219112539  MEMB      186             0.0000000000
     21395       186  SAPS      C12           -24.8135269408      -34.6841048904      -20.7292571860  MEMB      186             0.0000000000
     21396       186  SAPS      H12A          -24.1288169714      -33.8887450707      -20.9841593349  MEMB      186             0.0000000000
     21397       186  SAPS      C13           -26.2934413251      -34.2566129542      -20.5237947605  MEMB      186             0.0000000000
     21398       186  SAPS      O13A          -27.1342688695      -34.5419916788      -21.3952283867  MEMB      186             0.0000000000
     21399       186  SAPS      O13B          -26.4716648860      -33.2722017221      -19.7047804127  MEMB      186             0.0000000000
     21400       186  SAPS      C11           -24.2510744656      -35.2509963409      -19.4592279594  MEMB      186             0.0000000000
     21401       186  SAPS      H11A          -24.7181711167      -36.2492203364      -19.3189049300  MEMB      186             0.0000000000
     21402       186  SAPS      H11B          -24.3293625049      -34.5892510272      -18.5702481427  MEMB      186             0.0000000000
     21403       186  SAPS      P             -22.2055846731      -36.8431800520      -19.3392147172  MEMB      186             0.0000000000
     21404       186  SAPS      O13           -22.8603059849      -37.8143377711      -20.2225953653  MEMB      186             0.0000000000
     21405       186  SAPS      O14           -20.7370099255      -36.7987090839      -19.3876187506  MEMB      186             0.0000000000
     21406       186  SAPS      O12           -22.8454385899      -35.4185149572      -19.6231893401  MEMB      186             0.0000000000
     21407       186  SAPS      O11           -22.6147458204      -37.0832830158      -17.7996958189  MEMB      186             0.0000000000
     21408       186  SAPS      C1            -22.0038900507      -36.1310645603      -16.9130094903  MEMB      186             0.0000000000
     21409       186  SAPS      HA            -20.9302743130      -36.3836528131      -16.7793316536  MEMB      186             0.0000000000
     21410       186  SAPS      HB            -22.0735088246      -35.0913186385      -17.2982402365  MEMB      186             0.0000000000
     21411       186  SAPS      C2            -22.7361956679      -35.9825310054      -15.5531440675  MEMB      186             0.0000000000
     21412       186  SAPS      HS            -22.1509630127      -35.3411709433      -14.8599769505  MEMB      186             0.0000000000
     21413       186  SAPS      O21           -22.9839197560      -37.2673733770      -14.9658044613  MEMB      186             0.0000000000
     21414       186  SAPS      C21           -21.9221185781      -37.8229476962      -14.3776604629  MEMB      186             0.0000000000
     21415       186  SAPS      O22           -20.8438957307      -37.3121345863      -14.0939991077  MEMB      186             0.0000000000
     21416       186  SAPS      C22           -22.3132422096      -39.3577967677      -13.9702914527  MEMB      186             0.0000000000
     21417       186  SAPS      H2R           -23.0479670088      -39.6766312132      -14.7402558598  MEMB      186             0.0000000000
     21418       186  SAPS      H2S           -21.4095963652      -40.0035818038      -13.9968836092  MEMB      186             0.0000000000
     21419       186  SAPS      C3            -24.1142764589      -35.3420106207      -15.7190859115  MEMB      186             0.0000000000
     21420       186  SAPS      HX            -24.6510266220      -36.0353550095      -16.4013567587  MEMB      186             0.0000000000
     21421       186  SAPS      HY            -24.0994136425      -34.3760131696      -16.2676739538  MEMB      186             0.0000000000
     21422       186  SAPS      O31           -24.8156386768      -35.3038867689      -14.5111790224  MEMB      186             0.0000000000
     21423       186  SAPS      C31           -25.5398437481      -34.2492292929      -14.1996996478  MEMB      186             0.0000000000
     21424       186  SAPS      O32           -25.6535837942      -33.2599354997      -14.9110557533  MEMB      186             0.0000000000
     21425       186  SAPS      C32           -26.2480035523      -34.3792564455      -12.8200505784  MEMB      186             0.0000000000
     21426       186  SAPS      H2X           -26.8154482312      -35.3272105324      -12.9371421833  MEMB      186             0.0000000000
     21427       186  SAPS      H2Y           -26.9126940057      -33.4943069529      -12.7232411553  MEMB      186             0.0000000000
     21428       186  SAPS      C23           -22.8791815351      -39.3364943190      -12.5758396551  MEMB      186             0.0000000000
     21429       186  SAPS      H3R           -23.3912376271      -40.3055897472      -12.3942528727  MEMB      186             0.0000000000
     21430       186  SAPS      H3S           -23.6478268688      -38.5344681724      -12.5919449122  MEMB      186             0.0000000000
     21431       186  SAPS      C24           -21.8066012495      -39.3035173815      -11.4628635366  MEMB      186             0.0000000000
     21432       186  SAPS      H4R           -20.9978274831      -38.5461523307      -11.5441297616  MEMB      186             0.0000000000
     21433       186  SAPS      H4S           -21.4036291479      -40.3372799218      -11.5200439675  MEMB      186             0.0000000000
     21434       186  SAPS      C25           -22.5780268675      -39.2786640032      -10.0858203971  MEMB      186             0.0000000000
     21435       186  SAPS      H5R           -23.1460167156      -40.1688077347       -9.7775481170  MEMB      186             0.0000000000
     21436       186  SAPS      C26           -22.8206582049      -38.2986023693       -9.2698251066  MEMB      186             0.0000000000
     21437       186  SAPS      H6R           -23.3806573007      -38.4161948338       -8.3303718763  MEMB      186             0.0000000000
     21438       186  SAPS      C27           -22.3154299864      -36.8878829522       -9.4136056778  MEMB      186             0.0000000000
     21439       186  SAPS      H7R           -23.1354586846      -36.2468088859       -9.0251502452  MEMB      186             0.0000000000
     21440       186  SAPS      H7S           -22.2468623286      -36.5388105923      -10.4661109679  MEMB      186             0.0000000000
     21441       186  SAPS      C28           -20.9987662588      -36.6090382295       -8.6833065379  MEMB      186             0.0000000000
     21442       186  SAPS      H8R           -20.1353072944      -37.2021646136       -9.0189246391  MEMB      186             0.0000000000
     21443       186  SAPS      C29           -20.7870400132      -35.6835264191       -7.7387255597  MEMB      186             0.0000000000
     21444       186  SAPS      H9R           -19.7285615008      -35.6200839750       -7.4461541772  MEMB      186             0.0000000000
     21445       186  SAPS      C210          -21.7872911588      -34.6996314097       -7.1594493734  MEMB      186             0.0000000000
     21446       186  SAPS      H10R          -21.1263568655      -34.2364569987       -6.3959336624  MEMB      186             0.0000000000
     21447       186  SAPS      H10S          -22.5556036310      -35.2137919596       -6.5432866256  MEMB      186             0.0000000000
     21448       186  SAPS      C211          -22.3027425928      -33.6161837587       -8.1240163402  MEMB      186             0.0000000000
     21449       186  SAPS      H11R          -21.7948397252      -33.5338717566       -9.0962603286  MEMB      186             0.0000000000
     21450       186  SAPS      C212          -23.2372947249      -32.6399846970       -7.8228273034  MEMB      186             0.0000000000
     21451       186  SAPS      H12R          -23.4392679923      -31.8865292363       -8.5983993045  MEMB      186             0.0000000000
     21452       186  SAPS      C213          -23.9372573701      -32.4193612604       -6.4907170130  MEMB      186             0.0000000000
     21453       186  SAPS      H13R          -24.3212197557      -33.4098495248       -6.1654066076  MEMB      186             0.0000000000
     21454       186  SAPS      H13S          -24.8661926202      -31.8614952155       -6.7360458207  MEMB      186             0.0000000000
     21455       186  SAPS      C214          -23.1969830424      -31.7250659745       -5.3668568598  MEMB      186             0.0000000000
     21456       186  SAPS      H14R          -22.5599765045      -30.8990599849       -5.7160512724  MEMB      186             0.0000000000
     21457       186  SAPS      C215          -23.1696296561      -32.0570188819       -4.0559376564  MEMB      186             0.0000000000
     21458       186  SAPS      H15R          -22.5210843013      -31.4314387963       -3.4250351394  MEMB      186             0.0000000000
     21459       186  SAPS      C216          -23.8600940534      -33.1746471496       -3.3466514350  MEMB      186             0.0000000000
     21460       186  SAPS      H16R          -24.2850805656      -33.9051720747       -4.0677911034  MEMB      186             0.0000000000
     21461       186  SAPS      H16S          -24.7485420934      -32.9630822938       -2.7140222510  MEMB      186             0.0000000000
     21462       186  SAPS      C217          -22.7697756498      -33.9620346434       -2.5274094145  MEMB      186             0.0000000000
     21463       186  SAPS      H17R          -21.8605421628      -34.1875292226       -3.1247080499  MEMB      186             0.0000000000
     21464       186  SAPS      H17S          -23.1410337905      -34.9205632022       -2.1058497915  MEMB      186             0.0000000000
     21465       186  SAPS      C218          -22.1287961446      -33.2931007332       -1.2751956434  MEMB      186             0.0000000000
     21466       186  SAPS      H18R          -22.9952200090      -32.8519060042       -0.7376295884  MEMB      186             0.0000000000
     21467       186  SAPS      H18S          -21.4488554572      -32.4356510061       -1.4669814147  MEMB      186             0.0000000000
     21468       186  SAPS      C219          -21.2784129090      -34.2936338999       -0.5281623228  MEMB      186             0.0000000000
     21469       186  SAPS      H19R          -20.5287264689      -34.8144658642       -1.1614263985  MEMB      186             0.0000000000
     21470       186  SAPS      H19S          -21.9499207645      -35.1180886483       -0.2061798120  MEMB      186             0.0000000000
     21471       186  SAPS      C220          -20.7076598434      -33.7197903915        0.7450724666  MEMB      186             0.0000000000
     21472       186  SAPS      H20R          -20.2194653397      -32.7429407489        0.5407396916  MEMB      186             0.0000000000
     21473       186  SAPS      H20S          -19.9420432333      -34.3958555865        1.1822086576  MEMB      186             0.0000000000
     21474       186  SAPS      H20T          -21.4434880659      -33.6097770075        1.5701637808  MEMB      186             0.0000000000
     21475       186  SAPS      C33           -25.2093779461      -34.5349668019      -11.6885209263  MEMB      186             0.0000000000
     21476       186  SAPS      H3X           -24.4573424196      -33.7232122202      -11.7876069970  MEMB      186             0.0000000000
     21477       186  SAPS      H3Y           -24.6543568699      -35.4807329996      -11.8668422751  MEMB      186             0.0000000000
     21478       186  SAPS      C34           -25.7997104654      -34.7727113644      -10.2282861131  MEMB      186             0.0000000000
     21479       186  SAPS      H4X           -26.3322875589      -33.8339091532       -9.9649733275  MEMB      186             0.0000000000
     21480       186  SAPS      H4Y           -25.0055674345      -34.7440575451       -9.4518604672  MEMB      186             0.0000000000
     21481       186  SAPS      C35           -26.8237613784      -35.9391289439      -10.0857232111  MEMB      186             0.0000000000
     21482       186  SAPS      H5X           -26.2632961064      -36.8975390423      -10.0451067411  MEMB      186             0.0000000000
     21483       186  SAPS      H5Y           -27.5264356914      -36.0745467160      -10.9355654856  MEMB      186             0.0000000000
     21484       186  SAPS      C36           -27.5729633521      -35.7360285465       -8.7680190498  MEMB      186             0.0000000000
     21485       186  SAPS      H6X           -28.2867850659      -36.5852533428       -8.7080480645  MEMB      186             0.0000000000
     21486       186  SAPS      H6Y           -28.2573781007      -34.8609570088       -8.7558738131  MEMB      186             0.0000000000
     21487       186  SAPS      C37           -26.7510371206      -35.7937592500       -7.4787219232  MEMB      186             0.0000000000
     21488       186  SAPS      H7X           -25.9020411651      -35.0818954543       -7.5610413910  MEMB      186             0.0000000000
     21489       186  SAPS      H7Y           -26.2576384621      -36.7789990189       -7.3366602762  MEMB      186             0.0000000000
     21490       186  SAPS      C38           -27.5133575143      -35.4147174414       -6.2281105985  MEMB      186             0.0000000000
     21491       186  SAPS      H8X           -28.4049338034      -36.0769203583       -6.1981021121  MEMB      186             0.0000000000
     21492       186  SAPS      H8Y           -27.7969951468      -34.3443354621       -6.3184051864  MEMB      186             0.0000000000
     21493       186  SAPS      C39           -26.6496116328      -35.3434503962       -4.9158801977  MEMB      186             0.0000000000
     21494       186  SAPS      H9X           -27.3248926432      -34.8051846242       -4.2168900410  MEMB      186             0.0000000000
     21495       186  SAPS      H9Y           -25.7137770700      -34.7505229465       -4.9993758252  MEMB      186             0.0000000000
     21496       186  SAPS      C310          -26.3956936570      -36.7990065527       -4.4018919135  MEMB      186             0.0000000000
     21497       186  SAPS      H10X          -26.0157682618      -37.4474542719       -5.2201169780  MEMB      186             0.0000000000
     21498       186  SAPS      H10Y          -27.3282656424      -37.3176087051       -4.0925670772  MEMB      186             0.0000000000
     21499       186  SAPS      C311          -25.3960464986      -36.8610515476       -3.2102127568  MEMB      186             0.0000000000
     21500       186  SAPS      H11X          -25.6850830740      -36.2501347810       -2.3284206219  MEMB      186             0.0000000000
     21501       186  SAPS      H11Y          -24.4087523450      -36.4626750639       -3.5278100602  MEMB      186             0.0000000000
     21502       186  SAPS      C312          -25.0585406064      -38.3392147734       -2.8454938337  MEMB      186             0.0000000000
     21503       186  SAPS      H12X          -25.9037533180      -39.0545289574       -2.9363890076  MEMB      186             0.0000000000
     21504       186  SAPS      H12Y          -24.9375869593      -38.2586297322       -1.7440412540  MEMB      186             0.0000000000
     21505       186  SAPS      C313          -23.7834271205      -38.9085553332       -3.4298055103  MEMB      186             0.0000000000
     21506       186  SAPS      H13X          -23.8382372271      -39.0575445037       -4.5294038814  MEMB      186             0.0000000000
     21507       186  SAPS      H13Y          -23.8076039862      -39.9225790307       -2.9764913483  MEMB      186             0.0000000000
     21508       186  SAPS      C314          -22.4261513342      -38.2407500158       -3.1381677448  MEMB      186             0.0000000000
     21509       186  SAPS      H14X          -22.2273751913      -38.0645985551       -2.0593810294  MEMB      186             0.0000000000
     21510       186  SAPS      H14Y          -22.4846561983      -37.3125550439       -3.7459108903  MEMB      186             0.0000000000
     21511       186  SAPS      C315          -21.2222969838      -38.9339885480       -3.7812826442  MEMB      186             0.0000000000
     21512       186  SAPS      H15X          -21.4482068906      -39.5646063474       -4.6676267296  MEMB      186             0.0000000000
     21513       186  SAPS      H15Y          -20.8348944476      -39.6734311004       -3.0481619717  MEMB      186             0.0000000000
     21514       186  SAPS      C316          -20.0955709929      -38.0516462070       -4.4040519425  MEMB      186             0.0000000000
     21515       186  SAPS      H16X          -20.4756821236      -37.4941574516       -5.2866864961  MEMB      186             0.0000000000
     21516       186  SAPS      H16Y          -19.2735693459      -38.6887474329       -4.7948678971  MEMB      186             0.0000000000
     21517       186  SAPS      C317          -19.6329058434      -37.0127723449       -3.3910370542  MEMB      186             0.0000000000
     21518       186  SAPS      H17X          -20.5409032876      -36.3816822319       -3.2833925752  MEMB      186             0.0000000000
     21519       186  SAPS      H17Y          -18.8177783549      -36.4418231539       -3.8849040367  MEMB      186             0.0000000000
     21520       186  SAPS      C318          -19.1158054169      -37.5858477382       -2.0460129810  MEMB      186             0.0000000000
     21521       186  SAPS      H18X          -18.6667562034      -36.7857693914       -1.4194746642  MEMB      186             0.0000000000
     21522       186  SAPS      H18Y          -18.4009902164      -38.4336365262       -2.1139412513  MEMB      186             0.0000000000
     21523       186  SAPS      H18Z          -19.9127202870      -38.0140210583       -1.4010980143  MEMB      186             0.0000000000
     21524       187  SAPE      N              27.2338746794       31.7241554299      -19.3017530827  MEMB      187             0.0000000000
     21525       187  SAPE      HN1            27.5582341492       31.6185745746      -20.2842212560  MEMB      187             0.0000000000
     21526       187  SAPE      HN2            26.3637320735       31.2134199877      -19.0495604773  MEMB      187             0.0000000000
     21527       187  SAPE      HN3            26.9523238967       32.7048273716      -19.1002296002  MEMB      187             0.0000000000
     21528       187  SAPE      C12            28.3610330202       31.3482642202      -18.4123449154  MEMB      187             0.0000000000
     21529       187  SAPE      H12A           28.4514868437       30.2520009760      -18.5683765398  MEMB      187             0.0000000000
     21530       187  SAPE      H12B           27.9885957427       31.4645290582      -17.3721074044  MEMB      187             0.0000000000
     21531       187  SAPE      C11            29.6825617607       32.0069323150      -18.7858147608  MEMB      187             0.0000000000
     21532       187  SAPE      H11A           30.5299470997       31.4994536359      -18.2771649589  MEMB      187             0.0000000000
     21533       187  SAPE      H11B           29.6314793885       33.0513779769      -18.4105217306  MEMB      187             0.0000000000
     21534       187  SAPE      P              31.2123079679       31.9709078959      -20.7867700716  MEMB      187             0.0000000000
     21535       187  SAPE      O13            31.0819872360       31.5950921392      -22.2024292886  MEMB      187             0.0000000000
     21536       187  SAPE      O14            32.0311423609       33.1737227515      -20.4480311592  MEMB      187             0.0000000000
     21537       187  SAPE      O12            29.7842207355       32.1301486773      -20.1615479849  MEMB      187             0.0000000000
     21538       187  SAPE      O11            31.7932498303       30.8218486041      -19.9013087084  MEMB      187             0.0000000000
     21539       187  SAPE      C1             31.7910919423       29.5152385943      -20.3534247134  MEMB      187             0.0000000000
     21540       187  SAPE      HA             30.8057378780       29.1067780712      -20.6641630455  MEMB      187             0.0000000000
     21541       187  SAPE      HB             32.4640343297       29.4473910568      -21.2348248556  MEMB      187             0.0000000000
     21542       187  SAPE      C2             32.4390993285       28.5024513499      -19.4323811701  MEMB      187             0.0000000000
     21543       187  SAPE      HS             32.4584565330       27.5049582025      -19.9212103361  MEMB      187             0.0000000000
     21544       187  SAPE      O21            31.8579700978       28.5673311134      -18.1506169851  MEMB      187             0.0000000000
     21545       187  SAPE      C21            30.6544379279       28.0252644252      -18.0156407491  MEMB      187             0.0000000000
     21546       187  SAPE      O22            29.9796643047       27.5490449911      -18.8959681108  MEMB      187             0.0000000000
     21547       187  SAPE      C22            30.0822802665       28.3085211275      -16.6299553867  MEMB      187             0.0000000000
     21548       187  SAPE      H2R            30.6900222064       29.1571510098      -16.2494323200  MEMB      187             0.0000000000
     21549       187  SAPE      H2S            28.9888495999       28.4905000782      -16.7048835199  MEMB      187             0.0000000000
     21550       187  SAPE      C3             33.9516110423       28.8370200516      -19.2302747099  MEMB      187             0.0000000000
     21551       187  SAPE      HX             34.4968857021       28.6810552744      -20.1856132292  MEMB      187             0.0000000000
     21552       187  SAPE      HY             34.5110315660       28.1968575847      -18.5150396775  MEMB      187             0.0000000000
     21553       187  SAPE      O31            34.1168283523       30.1983346699      -18.7766563716  MEMB      187             0.0000000000
     21554       187  SAPE      C31            34.2660111200       30.4603997474      -17.4563042650  MEMB      187             0.0000000000
     21555       187  SAPE      O32            34.1865110443       29.7244187125      -16.5360218328  MEMB      187             0.0000000000
     21556       187  SAPE      C32            34.5122989570       31.9439573426      -17.2851024395  MEMB      187             0.0000000000
     21557       187  SAPE      H2X            35.1352638783       32.2178239440      -18.1633009356  MEMB      187             0.0000000000
     21558       187  SAPE      H2Y            35.0672749200       32.1442445374      -16.3437164696  MEMB      187             0.0000000000
     21559       187  SAPE      C23            30.4284735266       27.1393328988      -15.6752783509  MEMB      187             0.0000000000
     21560       187  SAPE      H3R            31.5296584498       27.2628570239      -15.5949372361  MEMB      187             0.0000000000
     21561       187  SAPE      H3S            30.1645216033       26.2069884867      -16.2187705629  MEMB      187             0.0000000000
     21562       187  SAPE      C24            29.7152810020       27.3649493367      -14.3322797962  MEMB      187             0.0000000000
     21563       187  SAPE      H4R            28.7061972433       27.8294306335      -14.3503895264  MEMB      187             0.0000000000
     21564       187  SAPE      H4S            30.3427856934       28.0625432151      -13.7373663045  MEMB      187             0.0000000000
     21565       187  SAPE      C25            29.4702443750       26.0658979485      -13.5396980956  MEMB      187             0.0000000000
     21566       187  SAPE      H5R            29.1285673280       25.2180496452      -14.1515884160  MEMB      187             0.0000000000
     21567       187  SAPE      C26            29.5138160424       25.8653424455      -12.2132234959  MEMB      187             0.0000000000
     21568       187  SAPE      H6R            29.3035834246       24.8832220632      -11.7646233884  MEMB      187             0.0000000000
     21569       187  SAPE      C27            29.8624940379       26.8894469828      -11.2096518393  MEMB      187             0.0000000000
     21570       187  SAPE      H7R            29.5124748828       27.8580227651      -11.6263884167  MEMB      187             0.0000000000
     21571       187  SAPE      H7S            30.9465057355       27.0426639589      -11.0205376085  MEMB      187             0.0000000000
     21572       187  SAPE      C28            29.1099049358       26.6473331011       -9.9346910687  MEMB      187             0.0000000000
     21573       187  SAPE      H8R            28.0444174811       26.3921910946      -10.0328712316  MEMB      187             0.0000000000
     21574       187  SAPE      C29            29.6435146059       26.6253847764       -8.7014179593  MEMB      187             0.0000000000
     21575       187  SAPE      H9R            28.9491922181       26.5607611121       -7.8506886639  MEMB      187             0.0000000000
     21576       187  SAPE      C210           31.1546554110       26.8342306605       -8.4275862612  MEMB      187             0.0000000000
     21577       187  SAPE      H10R           31.6981777395       26.2438805779       -9.1959548124  MEMB      187             0.0000000000
     21578       187  SAPE      H10S           31.3950443291       26.4610014281       -7.4091385676  MEMB      187             0.0000000000
     21579       187  SAPE      C211           31.6634270783       28.2289285154       -8.6840774551  MEMB      187             0.0000000000
     21580       187  SAPE      H11R           31.6667765835       28.5366207345       -9.7401612472  MEMB      187             0.0000000000
     21581       187  SAPE      C212           32.1029699304       29.0779410502       -7.7893507850  MEMB      187             0.0000000000
     21582       187  SAPE      H12R           32.6429048546       29.9302198810       -8.2276334385  MEMB      187             0.0000000000
     21583       187  SAPE      C213           32.1887491438       28.9733324711       -6.3165089039  MEMB      187             0.0000000000
     21584       187  SAPE      H13R           31.4311995134       28.2534468139       -5.9394094077  MEMB      187             0.0000000000
     21585       187  SAPE      H13S           31.8657541403       29.9877421726       -5.9987537270  MEMB      187             0.0000000000
     21586       187  SAPE      C214           33.5352951218       28.6573822045       -5.7171808917  MEMB      187             0.0000000000
     21587       187  SAPE      H14R           34.4337182405       28.6861844365       -6.3512208647  MEMB      187             0.0000000000
     21588       187  SAPE      C215           33.7920866563       28.3014149143       -4.4067095485  MEMB      187             0.0000000000
     21589       187  SAPE      H15R           34.8330734099       28.0999825915       -4.1138418600  MEMB      187             0.0000000000
     21590       187  SAPE      C216           32.7235055221       28.2195470118       -3.3916116562  MEMB      187             0.0000000000
     21591       187  SAPE      H16R           32.6297442026       27.2848952712       -2.7983517752  MEMB      187             0.0000000000
     21592       187  SAPE      H16S           31.7439571960       28.4605859855       -3.8571289400  MEMB      187             0.0000000000
     21593       187  SAPE      C217           33.0404401310       29.2834682897       -2.3613257012  MEMB      187             0.0000000000
     21594       187  SAPE      H17R           32.2951649404       29.1082258876       -1.5562315033  MEMB      187             0.0000000000
     21595       187  SAPE      H17S           32.9213691122       30.3105508217       -2.7678286382  MEMB      187             0.0000000000
     21596       187  SAPE      C218           34.4050524914       29.2811164717       -1.6267062071  MEMB      187             0.0000000000
     21597       187  SAPE      H18R           35.1299489004       29.4344789749       -2.4545511620  MEMB      187             0.0000000000
     21598       187  SAPE      H18S           34.5989729084       28.3215464365       -1.1014060483  MEMB      187             0.0000000000
     21599       187  SAPE      C219           34.5870978182       30.4328242752       -0.5907294259  MEMB      187             0.0000000000
     21600       187  SAPE      H19R           35.6669771379       30.4616815686       -0.3312130945  MEMB      187             0.0000000000
     21601       187  SAPE      H19S           33.8849381182       30.0728298532        0.1913808124  MEMB      187             0.0000000000
     21602       187  SAPE      C220           34.0854210522       31.8007436738       -0.9172030952  MEMB      187             0.0000000000
     21603       187  SAPE      H20R           33.0882891760       31.8783188447       -1.4009719989  MEMB      187             0.0000000000
     21604       187  SAPE      H20S           34.7866547157       32.1714585275       -1.6951258687  MEMB      187             0.0000000000
     21605       187  SAPE      H20T           34.0272734159       32.4756273517       -0.0365939052  MEMB      187             0.0000000000
     21606       187  SAPE      C33            33.1693946445       32.6186265496      -17.1308427065  MEMB      187             0.0000000000
     21607       187  SAPE      H3X            32.6498354151       32.6652665863      -18.1117626190  MEMB      187             0.0000000000
     21608       187  SAPE      H3Y            33.5327709127       33.6351915884      -16.8684035657  MEMB      187             0.0000000000
     21609       187  SAPE      C34            32.3355200421       32.2113269868      -15.9010098919  MEMB      187             0.0000000000
     21610       187  SAPE      H4X            31.9847923147       31.1642170527      -16.0229600229  MEMB      187             0.0000000000
     21611       187  SAPE      H4Y            31.4739995110       32.9068626998      -15.8097220657  MEMB      187             0.0000000000
     21612       187  SAPE      C35            33.0650886344       32.2737980921      -14.5075747775  MEMB      187             0.0000000000
     21613       187  SAPE      H5X            33.5972672901       33.2420593338      -14.3910542812  MEMB      187             0.0000000000
     21614       187  SAPE      H5Y            33.9855902656       31.6518109483      -14.4961730692  MEMB      187             0.0000000000
     21615       187  SAPE      C36            32.0142318501       32.0593569004      -13.3814736593  MEMB      187             0.0000000000
     21616       187  SAPE      H6X            31.7324432599       30.9848981946      -13.3601520717  MEMB      187             0.0000000000
     21617       187  SAPE      H6Y            31.1977251037       32.7244011368      -13.7355268861  MEMB      187             0.0000000000
     21618       187  SAPE      C37            32.6597434527       32.4867378636      -12.0246860199  MEMB      187             0.0000000000
     21619       187  SAPE      H7X            33.3112392314       33.3509041385      -12.2758662052  MEMB      187             0.0000000000
     21620       187  SAPE      H7Y            33.2324881477       31.6295638443      -11.6105158923  MEMB      187             0.0000000000
     21621       187  SAPE      C38            31.6245829763       32.9677111261      -11.0096820300  MEMB      187             0.0000000000
     21622       187  SAPE      H8X            30.9558297337       33.7296027172      -11.4642266300  MEMB      187             0.0000000000
     21623       187  SAPE      H8Y            32.0509330529       33.5358881210      -10.1554439801  MEMB      187             0.0000000000
     21624       187  SAPE      C39            30.7036124288       31.9099282508      -10.3964336997  MEMB      187             0.0000000000
     21625       187  SAPE      H9X            31.3199743356       31.0961571177       -9.9580323693  MEMB      187             0.0000000000
     21626       187  SAPE      H9Y            30.0461194946       31.4212474382      -11.1469102709  MEMB      187             0.0000000000
     21627       187  SAPE      C310           29.7026066391       32.5029663173       -9.2552084885  MEMB      187             0.0000000000
     21628       187  SAPE      H10X           28.9716074245       33.2378668678       -9.6550607191  MEMB      187             0.0000000000
     21629       187  SAPE      H10Y           30.3804791381       33.0618961223       -8.5752026923  MEMB      187             0.0000000000
     21630       187  SAPE      C311           28.9816516745       31.3330285489       -8.5003560094  MEMB      187             0.0000000000
     21631       187  SAPE      H11X           29.7146140952       30.4983765551       -8.4793093119  MEMB      187             0.0000000000
     21632       187  SAPE      H11Y           28.1727215740       30.9722462720       -9.1710196666  MEMB      187             0.0000000000
     21633       187  SAPE      C312           28.4162862209       31.8256950338       -7.1304787907  MEMB      187             0.0000000000
     21634       187  SAPE      H12X           27.5823741453       32.5163364042       -7.3793283149  MEMB      187             0.0000000000
     21635       187  SAPE      H12Y           29.2380163530       32.3355506558       -6.5835532924  MEMB      187             0.0000000000
     21636       187  SAPE      C313           27.8336355832       30.8060258395       -6.0802852660  MEMB      187             0.0000000000
     21637       187  SAPE      H13X           27.0027280575       30.2044816762       -6.5069679514  MEMB      187             0.0000000000
     21638       187  SAPE      H13Y           27.6105526518       31.4709601755       -5.2186489182  MEMB      187             0.0000000000
     21639       187  SAPE      C314           28.8754670100       29.7342005809       -5.4811216173  MEMB      187             0.0000000000
     21640       187  SAPE      H14X           29.7187050856       30.3301569304       -5.0711131622  MEMB      187             0.0000000000
     21641       187  SAPE      H14Y           29.1485617865       29.1955077804       -6.4136188182  MEMB      187             0.0000000000
     21642       187  SAPE      C315           28.5112659892       28.7161088852       -4.4369186656  MEMB      187             0.0000000000
     21643       187  SAPE      H15X           29.3657467030       28.0157289395       -4.3200768912  MEMB      187             0.0000000000
     21644       187  SAPE      H15Y           27.6578167552       28.1019240738       -4.7956973238  MEMB      187             0.0000000000
     21645       187  SAPE      C316           28.2258823357       29.2208054002       -3.0713938088  MEMB      187             0.0000000000
     21646       187  SAPE      H16X           27.6095862900       28.5230486091       -2.4650624149  MEMB      187             0.0000000000
     21647       187  SAPE      H16Y           27.6325988349       30.1524241347       -3.1914846973  MEMB      187             0.0000000000
     21648       187  SAPE      C317           29.5312119257       29.5037286574       -2.3381182592  MEMB      187             0.0000000000
     21649       187  SAPE      H17X           30.1862625141       30.1237090231       -2.9868501477  MEMB      187             0.0000000000
     21650       187  SAPE      H17Y           30.0555362695       28.5668783563       -2.0522580289  MEMB      187             0.0000000000
     21651       187  SAPE      C318           29.5068245095       30.3863098839       -0.9801203387  MEMB      187             0.0000000000
     21652       187  SAPE      H18X           30.4945890919       30.2284821823       -0.4966596850  MEMB      187             0.0000000000
     21653       187  SAPE      H18Y           28.7700410209       30.1081176815       -0.1964870235  MEMB      187             0.0000000000
     21654       187  SAPE      H18Z           29.4164139989       31.4655385945       -1.2279335688  MEMB      187             0.0000000000
     21655       188  OSM       N             -30.6374620080       31.5287145672      -22.6629902395  MEMB      188             0.0000000000
     21656       188  OSM       C15           -29.5117753044       30.5758379147      -22.5164043601  MEMB      188             0.0000000000
     21657       188  OSM       H15A          -28.8040603092       30.6426686169      -23.3294683903  MEMB      188             0.0000000000
     21658       188  OSM       H15B          -29.7734696545       29.5291808232      -22.4671586132  MEMB      188             0.0000000000
     21659       188  OSM       H15C          -28.9415542204       30.8773582360      -21.6501865115  MEMB      188             0.0000000000
     21660       188  OSM       C14           -29.9665855767       32.8422326269      -22.9513610900  MEMB      188             0.0000000000
     21661       188  OSM       H14A          -29.2078039969       32.9961322429      -22.1983901450  MEMB      188             0.0000000000
     21662       188  OSM       H14B          -30.7578783084       33.5769470639      -22.9301371149  MEMB      188             0.0000000000
     21663       188  OSM       H14C          -29.5930432132       32.8283275587      -23.9646098228  MEMB      188             0.0000000000
     21664       188  OSM       C13           -31.3587868748       31.0858928419      -23.8571084005  MEMB      188             0.0000000000
     21665       188  OSM       H13A          -31.8925160962       30.1863279265      -23.5881920903  MEMB      188             0.0000000000
     21666       188  OSM       H13B          -30.6456150661       31.0418798129      -24.6669530590  MEMB      188             0.0000000000
     21667       188  OSM       H13C          -32.0770560999       31.8575885666      -24.0915757408  MEMB      188             0.0000000000
     21668       188  OSM       C12           -31.5792978408       31.6101439186      -21.5259300051  MEMB      188             0.0000000000
     21669       188  OSM       H12A          -32.1645483425       30.7024670612      -21.5280674414  MEMB      188             0.0000000000
     21670       188  OSM       H12B          -32.4116841692       32.2945041899      -21.5979300365  MEMB      188             0.0000000000
     21671       188  OSM       C11           -30.9685101004       31.8493378917      -20.1029847088  MEMB      188             0.0000000000
     21672       188  OSM       H11A          -30.3322643364       30.9830840134      -19.8217081381  MEMB      188             0.0000000000
     21673       188  OSM       H11B          -31.7474211224       31.8751842236      -19.3111826142  MEMB      188             0.0000000000
     21674       188  OSM       P             -28.8790913861       33.3186765583      -19.5429669085  MEMB      188             0.0000000000
     21675       188  OSM       O13           -28.0133639828       32.5604954496      -20.4612352781  MEMB      188             0.0000000000
     21676       188  OSM       O14           -28.6592625060       34.7403313416      -19.1750637666  MEMB      188             0.0000000000
     21677       188  OSM       O11           -28.8433828567       32.4597773976      -18.1739655045  MEMB      188             0.0000000000
     21678       188  OSM       O12           -30.3189280596       33.0538393942      -20.0299897220  MEMB      188             0.0000000000
     21679       188  OSM       C1S           -29.3117423197       33.0555325199      -16.9650299634  MEMB      188             0.0000000000
     21680       188  OSM       H1S           -30.3690717606       33.3965618695      -16.9564032024  MEMB      188             0.0000000000
     21681       188  OSM       H1T           -28.7533683218       33.9881698503      -16.7354062415  MEMB      188             0.0000000000
     21682       188  OSM       NF            -29.9640060037       32.4793382578      -14.6261963864  MEMB      188             0.0000000000
     21683       188  OSM       HNF           -29.3777755961       32.5813833482      -13.8262405148  MEMB      188             0.0000000000
     21684       188  OSM       C2S           -29.2325304444       32.0323910066      -15.8092346129  MEMB      188             0.0000000000
     21685       188  OSM       H2S           -29.6558214369       31.0504791632      -16.1108883407  MEMB      188             0.0000000000
     21686       188  OSM       C3S           -27.7702444447       31.7596605264      -15.3879693253  MEMB      188             0.0000000000
     21687       188  OSM       H3S           -27.1105797034       32.6441203017      -15.2579917667  MEMB      188             0.0000000000
     21688       188  OSM       O3            -27.1943617174       30.9764472775      -16.4096168661  MEMB      188             0.0000000000
     21689       188  OSM       HO3           -27.7717779925       31.1574761319      -17.1548811749  MEMB      188             0.0000000000
     21690       188  OSM       C4S           -27.5717820050       30.9562221801      -14.0889619921  MEMB      188             0.0000000000
     21691       188  OSM       H4S           -27.8038632411       29.8812491914      -14.1128703342  MEMB      188             0.0000000000
     21692       188  OSM       C5S           -26.9941447954       31.4883016988      -13.0106980598  MEMB      188             0.0000000000
     21693       188  OSM       H5S           -26.8202748462       32.5717620057      -12.9339958413  MEMB      188             0.0000000000
     21694       188  OSM       C6S           -26.7065843709       30.6849560057      -11.7728611758  MEMB      188             0.0000000000
     21695       188  OSM       H6S           -25.6138782738       30.7216592297      -11.5754604868  MEMB      188             0.0000000000
     21696       188  OSM       H6T           -26.9077105427       29.5973735481      -11.8779019159  MEMB      188             0.0000000000
     21697       188  OSM       C7S           -27.4799549374       31.2000092006      -10.5165174700  MEMB      188             0.0000000000
     21698       188  OSM       H7S           -28.5680292008       31.0266804883      -10.6592506535  MEMB      188             0.0000000000
     21699       188  OSM       H7T           -27.2112007553       32.2772981216      -10.4772633514  MEMB      188             0.0000000000
     21700       188  OSM       C8S           -27.1359516355       30.5372208063       -9.1575213741  MEMB      188             0.0000000000
     21701       188  OSM       H8S           -26.0706730274       30.5823085368       -8.8453198131  MEMB      188             0.0000000000
     21702       188  OSM       H8T           -27.3601168902       29.4524622917       -9.0716751081  MEMB      188             0.0000000000
     21703       188  OSM       C9S           -27.8507629857       31.1789859072       -7.9777559601  MEMB      188             0.0000000000
     21704       188  OSM       H9S           -27.4845675857       32.1935970497       -7.7116996908  MEMB      188             0.0000000000
     21705       188  OSM       H9T           -27.6194903537       30.4924779738       -7.1354139413  MEMB      188             0.0000000000
     21706       188  OSM       C10S          -29.4427670301       31.2384937664       -8.1032964296  MEMB      188             0.0000000000
     21707       188  OSM       H10S          -29.8572129066       30.2400162720       -8.3594178013  MEMB      188             0.0000000000
     21708       188  OSM       H10T          -29.6474400038       31.9934625798       -8.8922525953  MEMB      188             0.0000000000
     21709       188  OSM       C11S          -30.2596962465       31.8458589601       -6.9072622220  MEMB      188             0.0000000000
     21710       188  OSM       H11S          -31.3408260790       31.7308236141       -7.1358363270  MEMB      188             0.0000000000
     21711       188  OSM       H11T          -30.0681075456       32.9400398324       -6.8876909077  MEMB      188             0.0000000000
     21712       188  OSM       C12S          -29.9467381076       31.2067284745       -5.5311142943  MEMB      188             0.0000000000
     21713       188  OSM       H12S          -29.6251358967       30.1524172266       -5.6701131938  MEMB      188             0.0000000000
     21714       188  OSM       H12T          -30.8849954893       31.1974257164       -4.9362138046  MEMB      188             0.0000000000
     21715       188  OSM       C13S          -28.9776131673       32.0308821283       -4.6740217433  MEMB      188             0.0000000000
     21716       188  OSM       H13S          -29.3824278957       33.0654609532       -4.6643965771  MEMB      188             0.0000000000
     21717       188  OSM       H13T          -27.9726293846       32.0677052569       -5.1462209894  MEMB      188             0.0000000000
     21718       188  OSM       C14S          -28.7133570113       31.5504693646       -3.2516668868  MEMB      188             0.0000000000
     21719       188  OSM       H14S          -29.6863141809       31.5771579149       -2.7159774805  MEMB      188             0.0000000000
     21720       188  OSM       H14T          -28.1127276550       32.2961503182       -2.6881739375  MEMB      188             0.0000000000
     21721       188  OSM       C15S          -28.0330026988       30.1378357397       -3.1918963691  MEMB      188             0.0000000000
     21722       188  OSM       H15S          -26.9436159386       30.2064496262       -3.3988978740  MEMB      188             0.0000000000
     21723       188  OSM       H15T          -28.6364366738       29.4666556832       -3.8397432290  MEMB      188             0.0000000000
     21724       188  OSM       C16S          -27.9940639312       29.3281504927       -1.8138513031  MEMB      188             0.0000000000
     21725       188  OSM       H16S          -27.3921365930       28.3959535378       -1.7589528212  MEMB      188             0.0000000000
     21726       188  OSM       H16T          -29.0273288243       28.9400770716       -1.6870308860  MEMB      188             0.0000000000
     21727       188  OSM       C17S          -27.5703474906       30.0968417229       -0.5150344018  MEMB      188             0.0000000000
     21728       188  OSM       H17S          -27.9297840859       31.1416730074       -0.6310234546  MEMB      188             0.0000000000
     21729       188  OSM       H17T          -26.4605529434       30.0795328740       -0.4662760472  MEMB      188             0.0000000000
     21730       188  OSM       C18S          -28.1195339155       29.4698058447        0.6963408983  MEMB      188             0.0000000000
     21731       188  OSM       H18S          -27.9364120041       28.3751206155        0.7458550210  MEMB      188             0.0000000000
     21732       188  OSM       H18T          -29.2033108124       29.5890113718        0.9097401050  MEMB      188             0.0000000000
     21733       188  OSM       H18U          -27.7880754393       29.9075727787        1.6621650977  MEMB      188             0.0000000000
     21734       188  OSM       C1F           -31.2923094612       32.7013698950      -14.3808026827  MEMB      188             0.0000000000
     21735       188  OSM       OF            -32.1865920704       32.5467145052      -15.2545605854  MEMB      188             0.0000000000
     21736       188  OSM       C2F           -31.6253671368       33.1453530087      -12.9806556048  MEMB      188             0.0000000000
     21737       188  OSM       H2F           -30.6815814570       33.0757796415      -12.3986334813  MEMB      188             0.0000000000
     21738       188  OSM       H2G           -32.4150032539       32.5224262438      -12.5086835425  MEMB      188             0.0000000000
     21739       188  OSM       C3F           -32.0807201317       34.6353396148      -13.0407166536  MEMB      188             0.0000000000
     21740       188  OSM       H3F           -32.8030962869       34.7647759657      -13.8748271202  MEMB      188             0.0000000000
     21741       188  OSM       H3G           -31.2810206294       35.3497419208      -13.3312870909  MEMB      188             0.0000000000
     21742       188  OSM       C4F           -32.6432857387       35.1635347797      -11.7130819077  MEMB      188             0.0000000000
     21743       188  OSM       H4F           -33.6051473788       34.6444337275      -11.5138906965  MEMB      188             0.0000000000
     21744       188  OSM       H4G           -32.9171571486       36.2346484325      -11.8227667589  MEMB      188             0.0000000000
     21745       188  OSM       C5F           -31.6961290793       34.9532255049      -10.4566107264  MEMB      188             0.0000000000
     21746       188  OSM       H5F           -30.7574602249       35.4509112841      -10.7814652279  MEMB      188             0.0000000000
     21747       188  OSM       H5G           -31.3993119208       33.9380715716      -10.1164886343  MEMB      188             0.0000000000
     21748       188  OSM       C6F           -32.3199493406       35.6293784299       -9.1824901082  MEMB      188             0.0000000000
     21749       188  OSM       H6F           -32.7084280255       36.6225764567       -9.4938798373  MEMB      188             0.0000000000
     21750       188  OSM       H6G           -31.5004588147       35.8401603741       -8.4625405937  MEMB      188             0.0000000000
     21751       188  OSM       C7F           -33.5427944458       34.8865730026       -8.5448087806  MEMB      188             0.0000000000
     21752       188  OSM       H7F           -33.1904094157       33.8610548704       -8.3030275663  MEMB      188             0.0000000000
     21753       188  OSM       H7G           -34.3288498309       34.8072102011       -9.3259227531  MEMB      188             0.0000000000
     21754       188  OSM       C8F           -34.1807257836       35.6662469159       -7.3435738314  MEMB      188             0.0000000000
     21755       188  OSM       H8F           -34.5756176849       36.6158110620       -7.7639420707  MEMB      188             0.0000000000
     21756       188  OSM       H8G           -33.3037548146       35.9518016578       -6.7241378307  MEMB      188             0.0000000000
     21757       188  OSM       C9F           -35.2795504069       34.8858154198       -6.6860586895  MEMB      188             0.0000000000
     21758       188  OSM       H9F           -36.2950913633       35.0598439307       -7.0712733079  MEMB      188             0.0000000000
     21759       188  OSM       C10F          -35.1905768465       33.9617744561       -5.6548763629  MEMB      188             0.0000000000
     21760       188  OSM       H10F          -36.0914923311       33.6272899191       -5.1196456802  MEMB      188             0.0000000000
     21761       188  OSM       C11F          -33.9249403762       33.5413247973       -4.9651878408  MEMB      188             0.0000000000
     21762       188  OSM       H11F          -33.0474087358       33.3137754650       -5.6074333488  MEMB      188             0.0000000000
     21763       188  OSM       H11G          -34.1488058769       32.5218665347       -4.5845158857  MEMB      188             0.0000000000
     21764       188  OSM       C12F          -33.4624541378       34.3893968078       -3.7536492462  MEMB      188             0.0000000000
     21765       188  OSM       H12F          -34.2708209262       34.3674079399       -2.9918217949  MEMB      188             0.0000000000
     21766       188  OSM       H12G          -33.2181731340       35.4106960008       -4.1164095633  MEMB      188             0.0000000000
     21767       188  OSM       C13F          -32.1897151641       33.7366795523       -3.2377188834  MEMB      188             0.0000000000
     21768       188  OSM       H13F          -31.3983287143       34.0901054077       -3.9327858736  MEMB      188             0.0000000000
     21769       188  OSM       H13G          -32.3371357795       32.6389871406       -3.3252369567  MEMB      188             0.0000000000
     21770       188  OSM       C14F          -31.7271109564       34.1584225968       -1.8169440535  MEMB      188             0.0000000000
     21771       188  OSM       H14F          -30.6987632842       33.7771418417       -1.6396115904  MEMB      188             0.0000000000
     21772       188  OSM       H14G          -32.4248724217       33.7975686892       -1.0313008896  MEMB      188             0.0000000000
     21773       188  OSM       C15F          -31.6861067206       35.6279799130       -1.5065711244  MEMB      188             0.0000000000
     21774       188  OSM       H15F          -32.7413975928       35.9620789814       -1.6017558713  MEMB      188             0.0000000000
     21775       188  OSM       H15G          -31.1826301039       36.1562847390       -2.3442626769  MEMB      188             0.0000000000
     21776       188  OSM       C16F          -31.2430395291       35.9872845018       -0.1336224053  MEMB      188             0.0000000000
     21777       188  OSM       H16F          -31.3995459406       35.1822534941        0.6158784121  MEMB      188             0.0000000000
     21778       188  OSM       H16G          -31.8606300487       36.8656436948        0.1516633381  MEMB      188             0.0000000000
     21779       188  OSM       C17F          -29.7463884203       36.3289192042       -0.1436554110  MEMB      188             0.0000000000
     21780       188  OSM       H17F          -29.6252885056       37.2270538611       -0.7863150988  MEMB      188             0.0000000000
     21781       188  OSM       H17G          -29.1634927395       35.5125711088       -0.6212849505  MEMB      188             0.0000000000
     21782       188  OSM       C18F          -29.1643772929       36.6349453360        1.2435692812  MEMB      188             0.0000000000
     21783       188  OSM       H18F          -29.7526851702       37.3550343362        1.8515869355  MEMB      188             0.0000000000
     21784       188  OSM       H18G          -28.0846621927       36.8933214997        1.2013958159  MEMB      188             0.0000000000
     21785       188  OSM       H18H          -29.1533044887       35.6552985454        1.7674861104  MEMB      188             0.0000000000
     21786       189  OSM       N              27.6765464598      -33.0212134586      -21.2869407958  MEMB      189             0.0000000000
     21787       189  OSM       C15            27.2836853348      -32.8569785066      -19.8696660176  MEMB      189             0.0000000000
     21788       189  OSM       H15A           26.6436812278      -33.6620371591      -19.5400063040  MEMB      189             0.0000000000
     21789       189  OSM       H15B           26.7327267042      -31.9427590828      -19.7052047899  MEMB      189             0.0000000000
     21790       189  OSM       H15C           28.1578190856      -32.6660604690      -19.2648183251  MEMB      189             0.0000000000
     21791       189  OSM       C14            28.6464835298      -34.1294779813      -21.3849357701  MEMB      189             0.0000000000
     21792       189  OSM       H14A           28.0957018161      -35.0043761320      -21.0725369900  MEMB      189             0.0000000000
     21793       189  OSM       H14B           29.4994919687      -33.7936414641      -20.8139800579  MEMB      189             0.0000000000
     21794       189  OSM       H14C           28.8868065094      -34.2416369564      -22.4318671049  MEMB      189             0.0000000000
     21795       189  OSM       C13            26.4875343805      -33.3195698186      -22.1957123184  MEMB      189             0.0000000000
     21796       189  OSM       H13A           26.8600514494      -33.3881412274      -23.2071118626  MEMB      189             0.0000000000
     21797       189  OSM       H13B           25.7598178103      -32.5229597939      -22.2430515072  MEMB      189             0.0000000000
     21798       189  OSM       H13C           25.9918691998      -34.1372989925      -21.6936815313  MEMB      189             0.0000000000
     21799       189  OSM       C12            28.4456313380      -31.7932896387      -21.8253502158  MEMB      189             0.0000000000
     21800       189  OSM       H12A           27.6562852178      -31.0563666133      -21.8420047620  MEMB      189             0.0000000000
     21801       189  OSM       H12B           28.6764046826      -32.0116316949      -22.8575664640  MEMB      189             0.0000000000
     21802       189  OSM       C11            29.6421993597      -31.3514379225      -20.9301153648  MEMB      189             0.0000000000
     21803       189  OSM       H11A           29.3149153852      -31.1697737162      -19.8840730782  MEMB      189             0.0000000000
     21804       189  OSM       H11B           29.8958616843      -30.4208493220      -21.4814603317  MEMB      189             0.0000000000
     21805       189  OSM       P              32.2660064325      -32.0003185021      -20.7684923216  MEMB      189             0.0000000000
     21806       189  OSM       O13            33.0990244241      -33.0959967697      -21.3284936203  MEMB      189             0.0000000000
     21807       189  OSM       O14            32.4118340572      -30.6558427569      -21.2972450383  MEMB      189             0.0000000000
     21808       189  OSM       O11            32.3514872928      -31.9140327811      -19.1786920521  MEMB      189             0.0000000000
     21809       189  OSM       O12            30.7279715959      -32.3173562552      -20.9343564814  MEMB      189             0.0000000000
     21810       189  OSM       C1S            31.7613290819      -32.5891719866      -18.1400541621  MEMB      189             0.0000000000
     21811       189  OSM       H1S            32.3363923484      -33.5390528860      -18.1033206984  MEMB      189             0.0000000000
     21812       189  OSM       H1T            30.7042666547      -32.8057716585      -18.4046758861  MEMB      189             0.0000000000
     21813       189  OSM       NF             31.2158631133      -30.5775705329      -16.8593012937  MEMB      189             0.0000000000
     21814       189  OSM       HNF            31.7746262716      -29.7827537498      -17.0830397988  MEMB      189             0.0000000000
     21815       189  OSM       C2S            31.8709264620      -31.8272292011      -16.8020462994  MEMB      189             0.0000000000
     21816       189  OSM       H2S            31.2560825314      -32.3602000478      -16.0455873251  MEMB      189             0.0000000000
     21817       189  OSM       C3S            33.3120919606      -31.6698892338      -16.4114014138  MEMB      189             0.0000000000
     21818       189  OSM       H3S            33.8602433056      -31.0520040997      -17.1544149106  MEMB      189             0.0000000000
     21819       189  OSM       O3             34.1181836908      -32.8392755739      -16.4185639334  MEMB      189             0.0000000000
     21820       189  OSM       HO3            33.6678179820      -33.4431844279      -17.0135971791  MEMB      189             0.0000000000
     21821       189  OSM       C4S            33.3890102461      -31.1364781600      -15.0264237539  MEMB      189             0.0000000000
     21822       189  OSM       H4S            33.7123862205      -30.0877776413      -14.9512221291  MEMB      189             0.0000000000
     21823       189  OSM       C5S            33.1672569362      -31.7857880843      -13.8585708752  MEMB      189             0.0000000000
     21824       189  OSM       H5S            32.6106092664      -32.7204084590      -14.0217515643  MEMB      189             0.0000000000
     21825       189  OSM       C6S            33.2967115687      -31.1703162981      -12.4460364871  MEMB      189             0.0000000000
     21826       189  OSM       H6S            34.1806327625      -30.5136453218      -12.2984300596  MEMB      189             0.0000000000
     21827       189  OSM       H6T            33.6352418585      -31.9421292923      -11.7221415345  MEMB      189             0.0000000000
     21828       189  OSM       C7S            32.0685617331      -30.4766215340      -11.8149187613  MEMB      189             0.0000000000
     21829       189  OSM       H7S            32.0318576943      -29.5992613577      -12.4955163987  MEMB      189             0.0000000000
     21830       189  OSM       H7T            32.4364018937      -30.2311038932      -10.7957348367  MEMB      189             0.0000000000
     21831       189  OSM       C8S            30.7178548329      -31.1707547725      -11.8811106941  MEMB      189             0.0000000000
     21832       189  OSM       H8S            30.4260845498      -31.3507141410      -12.9379009236  MEMB      189             0.0000000000
     21833       189  OSM       H8T            29.9671038686      -30.4467849325      -11.4982767610  MEMB      189             0.0000000000
     21834       189  OSM       C9S            30.7319043386      -32.5483751022      -11.0711503906  MEMB      189             0.0000000000
     21835       189  OSM       H9S            31.5622592583      -33.1616818554      -11.4818661148  MEMB      189             0.0000000000
     21836       189  OSM       H9T            29.7889339487      -33.0632401883      -11.3540673139  MEMB      189             0.0000000000
     21837       189  OSM       C10S           31.1568057679      -32.3068715932       -9.5604211320  MEMB      189             0.0000000000
     21838       189  OSM       H10S           32.1154070295      -31.7464923157       -9.5975639868  MEMB      189             0.0000000000
     21839       189  OSM       H10T           31.4180462540      -33.2996559504       -9.1356225810  MEMB      189             0.0000000000
     21840       189  OSM       C11S           30.0663917350      -31.7451390184       -8.6436410444  MEMB      189             0.0000000000
     21841       189  OSM       H11S           29.1029213397      -31.4644586047       -9.1203636227  MEMB      189             0.0000000000
     21842       189  OSM       H11T           30.4670641735      -30.7816916312       -8.2621278099  MEMB      189             0.0000000000
     21843       189  OSM       C12S           29.6390918791      -32.7429057400       -7.5565764892  MEMB      189             0.0000000000
     21844       189  OSM       H12S           28.8559074774      -32.1946980684       -6.9905275685  MEMB      189             0.0000000000
     21845       189  OSM       H12T           30.5221257305      -32.9493610514       -6.9147444011  MEMB      189             0.0000000000
     21846       189  OSM       C13S           28.8955896030      -34.0028219982       -8.0125370826  MEMB      189             0.0000000000
     21847       189  OSM       H13S           29.6129655164      -34.7738560122       -8.3663725660  MEMB      189             0.0000000000
     21848       189  OSM       H13T           28.2556885243      -33.8598407672       -8.9094225627  MEMB      189             0.0000000000
     21849       189  OSM       C14S           27.9996059213      -34.5676435053       -6.9603172063  MEMB      189             0.0000000000
     21850       189  OSM       H14S           27.5051123706      -35.5114483391       -7.2750064941  MEMB      189             0.0000000000
     21851       189  OSM       H14T           27.1516147135      -33.8998696793       -6.6970493498  MEMB      189             0.0000000000
     21852       189  OSM       C15S           28.7635101698      -35.0160378554       -5.7047566361  MEMB      189             0.0000000000
     21853       189  OSM       H15S           29.6749527382      -34.4117503895       -5.5087206300  MEMB      189             0.0000000000
     21854       189  OSM       H15T           29.1310999934      -36.0561727684       -5.8363551329  MEMB      189             0.0000000000
     21855       189  OSM       C16S           27.9605612010      -34.9799354558       -4.3548887743  MEMB      189             0.0000000000
     21856       189  OSM       H16S           28.6827118039      -35.4672175125       -3.6654150444  MEMB      189             0.0000000000
     21857       189  OSM       H16T           27.0656491270      -35.6293700380       -4.4630001166  MEMB      189             0.0000000000
     21858       189  OSM       C17S           27.6279419954      -33.6306237205       -3.7696938481  MEMB      189             0.0000000000
     21859       189  OSM       H17S           26.7097840538      -33.3067266364       -4.3048552750  MEMB      189             0.0000000000
     21860       189  OSM       H17T           28.3943817835      -32.8289975926       -3.8351680396  MEMB      189             0.0000000000
     21861       189  OSM       C18S           27.3571753678      -33.7424617132       -2.2146185299  MEMB      189             0.0000000000
     21862       189  OSM       H18S           26.9831310018      -32.7828704142       -1.7979712094  MEMB      189             0.0000000000
     21863       189  OSM       H18T           28.2792215901      -34.1418390237       -1.7406461785  MEMB      189             0.0000000000
     21864       189  OSM       H18U           26.4935533406      -34.4323152341       -2.1024562999  MEMB      189             0.0000000000
     21865       189  OSM       C1F            29.8273541261      -30.4651823364      -16.7705667001  MEMB      189             0.0000000000
     21866       189  OSM       OF             29.0471903439      -31.4042183127      -16.6451377190  MEMB      189             0.0000000000
     21867       189  OSM       C2F            29.2832230532      -29.1063972122      -16.9000845830  MEMB      189             0.0000000000
     21868       189  OSM       H2F            28.7310775157      -29.1220100689      -17.8640416138  MEMB      189             0.0000000000
     21869       189  OSM       H2G            30.1107986709      -28.3657813747      -16.8696291382  MEMB      189             0.0000000000
     21870       189  OSM       C3F            28.2585708196      -28.8886544680      -15.7748482016  MEMB      189             0.0000000000
     21871       189  OSM       H3F            27.6348917439      -29.8025222334      -15.6738972621  MEMB      189             0.0000000000
     21872       189  OSM       H3G            27.5860967547      -28.0316264298      -15.9930278313  MEMB      189             0.0000000000
     21873       189  OSM       C4F            28.8399264734      -28.7143913401      -14.3800215281  MEMB      189             0.0000000000
     21874       189  OSM       H4F            29.6199585601      -29.4703869052      -14.1469083228  MEMB      189             0.0000000000
     21875       189  OSM       H4G            27.9478529551      -28.9721244136      -13.7700220804  MEMB      189             0.0000000000
     21876       189  OSM       C5F            29.2400601200      -27.2731551609      -14.0104406716  MEMB      189             0.0000000000
     21877       189  OSM       H5F            28.2841850031      -26.7133689759      -14.0956642470  MEMB      189             0.0000000000
     21878       189  OSM       H5G            29.9805356286      -26.8747790734      -14.7366041730  MEMB      189             0.0000000000
     21879       189  OSM       C6F            29.7035562536      -27.0306614350      -12.5361327463  MEMB      189             0.0000000000
     21880       189  OSM       H6F            30.0075168928      -25.9646076025      -12.4622529429  MEMB      189             0.0000000000
     21881       189  OSM       H6G            30.6358704895      -27.6280632757      -12.4454564363  MEMB      189             0.0000000000
     21882       189  OSM       C7F            28.6186724546      -27.2978495517      -11.4523490211  MEMB      189             0.0000000000
     21883       189  OSM       H7F            28.4235905501      -28.3656512674      -11.2155727038  MEMB      189             0.0000000000
     21884       189  OSM       H7G            27.7269307253      -26.7391760634      -11.8087221171  MEMB      189             0.0000000000
     21885       189  OSM       C8F            29.0470437873      -26.6706728162      -10.0836498862  MEMB      189             0.0000000000
     21886       189  OSM       H8F            28.1332996862      -26.6165276178       -9.4539989456  MEMB      189             0.0000000000
     21887       189  OSM       H8G            29.3019209088      -25.5935508557      -10.1793945079  MEMB      189             0.0000000000
     21888       189  OSM       C9F            30.2409736004      -27.3895957245       -9.5456823405  MEMB      189             0.0000000000
     21889       189  OSM       H9F            31.0514650350      -27.5463853448      -10.2726765299  MEMB      189             0.0000000000
     21890       189  OSM       C10F           30.4838270970      -27.7993829140       -8.2776417997  MEMB      189             0.0000000000
     21891       189  OSM       H10F           31.4761173426      -28.2304359878       -8.0787615171  MEMB      189             0.0000000000
     21892       189  OSM       C11F           29.6519476747      -27.6814306624       -7.0424447724  MEMB      189             0.0000000000
     21893       189  OSM       H11F           28.6152066178      -27.3605700722       -7.2802206744  MEMB      189             0.0000000000
     21894       189  OSM       H11G           30.1199240561      -26.9349139177       -6.3656642905  MEMB      189             0.0000000000
     21895       189  OSM       C12F           29.5321084933      -28.9115186922       -6.2177366292  MEMB      189             0.0000000000
     21896       189  OSM       H12F           29.3012868720      -29.7538598588       -6.9043983021  MEMB      189             0.0000000000
     21897       189  OSM       H12G           28.6131573612      -28.8546843564       -5.5959493642  MEMB      189             0.0000000000
     21898       189  OSM       C13F           30.7009756207      -29.2433474499       -5.2643997283  MEMB      189             0.0000000000
     21899       189  OSM       H13F           30.9723778789      -28.3410155219       -4.6757924839  MEMB      189             0.0000000000
     21900       189  OSM       H13G           31.5152560867      -29.5105182870       -5.9714269485  MEMB      189             0.0000000000
     21901       189  OSM       C14F           30.3571880879      -30.4362135221       -4.3049028549  MEMB      189             0.0000000000
     21902       189  OSM       H14F           30.5195661064      -31.3867869572       -4.8565951302  MEMB      189             0.0000000000
     21903       189  OSM       H14G           29.2494219310      -30.4438986383       -4.3892604728  MEMB      189             0.0000000000
     21904       189  OSM       C15F           31.0020305983      -30.3837281715       -2.9181644122  MEMB      189             0.0000000000
     21905       189  OSM       H15F           30.5335206960      -31.1953005587       -2.3213651697  MEMB      189             0.0000000000
     21906       189  OSM       H15G           30.7259555981      -29.4512234243       -2.3810066392  MEMB      189             0.0000000000
     21907       189  OSM       C16F           32.5584193465      -30.6124040537       -2.9955365872  MEMB      189             0.0000000000
     21908       189  OSM       H16F           32.7432392265      -31.4530925422       -3.6979645810  MEMB      189             0.0000000000
     21909       189  OSM       H16G           32.9177010215      -30.9224705208       -1.9909999111  MEMB      189             0.0000000000
     21910       189  OSM       C17F           33.3700884658      -29.3989063648       -3.4117887630  MEMB      189             0.0000000000
     21911       189  OSM       H17F           32.9999979195      -29.0276122990       -4.3913269466  MEMB      189             0.0000000000
     21912       189  OSM       H17G           34.4070683544      -29.7747128974       -3.5450664428  MEMB      189             0.0000000000
     21913       189  OSM       C18F           33.4017106905      -28.2402430314       -2.3521591401  MEMB      189             0.0000000000
     21914       189  OSM       H18F           34.1542219851      -27.4291892580       -2.4533518539  MEMB      189             0.0000000000
     21915       189  OSM       H18G           33.7830155328      -28.6778180253       -1.4048174978  MEMB      189             0.0000000000
     21916       189  OSM       H18H           32.4043688609      -27.8147885624       -2.1100476293  MEMB      189             0.0000000000
     21917       190  SAPE      N             -35.3817171904      -26.3636646698      -21.4222909532  MEMB      190             0.0000000000
     21918       190  SAPE      HN1           -36.2531775413      -26.8467713057      -21.1243567951  MEMB      190             0.0000000000
     21919       190  SAPE      HN2           -35.2051203925      -25.5124383658      -20.8514780777  MEMB      190             0.0000000000
     21920       190  SAPE      HN3           -35.3276995822      -26.0856589475      -22.4229880546  MEMB      190             0.0000000000
     21921       190  SAPE      C12           -34.2723445076      -27.3712091720      -21.2597327193  MEMB      190             0.0000000000
     21922       190  SAPE      H12A          -33.3789652325      -26.9042457505      -21.7267866204  MEMB      190             0.0000000000
     21923       190  SAPE      H12B          -34.5552440785      -28.1742662707      -21.9734471152  MEMB      190             0.0000000000
     21924       190  SAPE      C11           -34.1800185403      -27.9819266415      -19.9031854763  MEMB      190             0.0000000000
     21925       190  SAPE      H11A          -33.9439713227      -27.2697145252      -19.0838218444  MEMB      190             0.0000000000
     21926       190  SAPE      H11B          -33.4697474341      -28.8291574572      -20.0128936740  MEMB      190             0.0000000000
     21927       190  SAPE      P             -35.7956092264      -29.9591881440      -19.5124319468  MEMB      190             0.0000000000
     21928       190  SAPE      O13           -37.0817753483      -30.1719496092      -18.7666447878  MEMB      190             0.0000000000
     21929       190  SAPE      O14           -35.6951007967      -30.4644481512      -20.9294348615  MEMB      190             0.0000000000
     21930       190  SAPE      O12           -35.4661210500      -28.4936741374      -19.5043966007  MEMB      190             0.0000000000
     21931       190  SAPE      O11           -34.6409981401      -30.6283114810      -18.7018826546  MEMB      190             0.0000000000
     21932       190  SAPE      C1            -34.9398181721      -31.4716139006      -17.5970572358  MEMB      190             0.0000000000
     21933       190  SAPE      HA            -35.7982102318      -32.1086841725      -17.8997544146  MEMB      190             0.0000000000
     21934       190  SAPE      HB            -34.0800592870      -32.1699976347      -17.5110601037  MEMB      190             0.0000000000
     21935       190  SAPE      C2            -35.2039017356      -30.6352940648      -16.3874423370  MEMB      190             0.0000000000
     21936       190  SAPE      HS            -36.1763530992      -30.1136638080      -16.5161328609  MEMB      190             0.0000000000
     21937       190  SAPE      O21           -34.1893617155      -29.6658596603      -16.1842455736  MEMB      190             0.0000000000
     21938       190  SAPE      C21           -34.6581612477      -28.6695371373      -15.3813131576  MEMB      190             0.0000000000
     21939       190  SAPE      O22           -35.8108998819      -28.5072161764      -14.9746005224  MEMB      190             0.0000000000
     21940       190  SAPE      C22           -33.3509225311      -27.8297412820      -14.9981552688  MEMB      190             0.0000000000
     21941       190  SAPE      H2R           -32.5733202056      -28.4361976670      -14.4864266714  MEMB      190             0.0000000000
     21942       190  SAPE      H2S           -33.0700152075      -27.4790350971      -16.0142347411  MEMB      190             0.0000000000
     21943       190  SAPE      C3            -35.2592317981      -31.4081912646      -15.0977952115  MEMB      190             0.0000000000
     21944       190  SAPE      HX            -35.8857387015      -32.2817842697      -15.3782328540  MEMB      190             0.0000000000
     21945       190  SAPE      HY            -35.8017700295      -30.9099565853      -14.2660889366  MEMB      190             0.0000000000
     21946       190  SAPE      O31           -34.0177755756      -31.8837220136      -14.5229663070  MEMB      190             0.0000000000
     21947       190  SAPE      C31           -34.1199877390      -32.7067291937      -13.5054187109  MEMB      190             0.0000000000
     21948       190  SAPE      O32           -35.1695646298      -32.9583890720      -12.9163609320  MEMB      190             0.0000000000
     21949       190  SAPE      C32           -32.7079124138      -33.1560119697      -13.1497967588  MEMB      190             0.0000000000
     21950       190  SAPE      H2X           -31.9474203371      -32.4274583260      -13.5036080380  MEMB      190             0.0000000000
     21951       190  SAPE      H2Y           -32.5308302486      -34.1551123682      -13.6023027795  MEMB      190             0.0000000000
     21952       190  SAPE      C23           -33.7700840308      -26.6626305805      -14.0483791438  MEMB      190             0.0000000000
     21953       190  SAPE      H3R           -34.5063256731      -27.0138761959      -13.2941276805  MEMB      190             0.0000000000
     21954       190  SAPE      H3S           -34.2838282394      -25.9646205229      -14.7434833108  MEMB      190             0.0000000000
     21955       190  SAPE      C24           -32.6159566712      -25.9192494449      -13.3356456596  MEMB      190             0.0000000000
     21956       190  SAPE      H4R           -33.0125013108      -25.0701344112      -12.7389234869  MEMB      190             0.0000000000
     21957       190  SAPE      H4S           -32.0478653741      -25.5297971275      -14.2073796745  MEMB      190             0.0000000000
     21958       190  SAPE      C25           -31.8154084301      -26.7429102128      -12.4369772497  MEMB      190             0.0000000000
     21959       190  SAPE      H5R           -31.1522090733      -27.5032615449      -12.8751923494  MEMB      190             0.0000000000
     21960       190  SAPE      C26           -31.8409593996      -26.7704623295      -11.0874388744  MEMB      190             0.0000000000
     21961       190  SAPE      H6R           -31.2458833246      -27.5205723943      -10.5459409931  MEMB      190             0.0000000000
     21962       190  SAPE      C27           -32.7785246979      -25.8329706255      -10.3127847466  MEMB      190             0.0000000000
     21963       190  SAPE      H7R           -33.7570872450      -25.7708980094      -10.8351669076  MEMB      190             0.0000000000
     21964       190  SAPE      H7S           -32.4167587505      -24.7956140367      -10.4781288249  MEMB      190             0.0000000000
     21965       190  SAPE      C28           -32.8047297471      -26.2204798772       -8.8361887249  MEMB      190             0.0000000000
     21966       190  SAPE      H8R           -31.9526040271      -25.8484795789       -8.2483982356  MEMB      190             0.0000000000
     21967       190  SAPE      C29           -33.6121904522      -27.0829806131       -8.1944793344  MEMB      190             0.0000000000
     21968       190  SAPE      H9R           -33.4568526450      -27.2787089883       -7.1232368121  MEMB      190             0.0000000000
     21969       190  SAPE      C210          -34.7691044346      -27.9220398356       -8.7554599607  MEMB      190             0.0000000000
     21970       190  SAPE      H10R          -35.2555159189      -28.4334791986       -7.8974652405  MEMB      190             0.0000000000
     21971       190  SAPE      H10S          -34.3057507909      -28.6943090862       -9.4060172454  MEMB      190             0.0000000000
     21972       190  SAPE      C211          -35.8426855338      -27.2679824621       -9.6044285199  MEMB      190             0.0000000000
     21973       190  SAPE      H11R          -35.4569836357      -26.9504193677      -10.5844221397  MEMB      190             0.0000000000
     21974       190  SAPE      C212          -37.1684890416      -27.2400620915       -9.4073341256  MEMB      190             0.0000000000
     21975       190  SAPE      H12R          -37.6735480434      -26.6061230490      -10.1509985991  MEMB      190             0.0000000000
     21976       190  SAPE      C213          -37.9662246913      -27.8111774034       -8.3112462119  MEMB      190             0.0000000000
     21977       190  SAPE      H13R          -37.6423333208      -28.8731748260       -8.2715382885  MEMB      190             0.0000000000
     21978       190  SAPE      H13S          -38.9612247432      -28.0551422305       -8.7411029027  MEMB      190             0.0000000000
     21979       190  SAPE      C214          -38.0003189937      -27.3052654814       -6.8825269954  MEMB      190             0.0000000000
     21980       190  SAPE      H14R          -38.4755300971      -26.3135651121       -6.9090812637  MEMB      190             0.0000000000
     21981       190  SAPE      C215          -37.5858892594      -27.7916709710       -5.6871593250  MEMB      190             0.0000000000
     21982       190  SAPE      H15R          -37.9157616514      -27.2720843817       -4.7754497736  MEMB      190             0.0000000000
     21983       190  SAPE      C216          -36.9129412821      -29.1334533371       -5.4523760155  MEMB      190             0.0000000000
     21984       190  SAPE      H16R          -35.8087928615      -29.0226120647       -5.5061478916  MEMB      190             0.0000000000
     21985       190  SAPE      H16S          -37.1773799039      -29.8407704846       -6.2672967308  MEMB      190             0.0000000000
     21986       190  SAPE      C217          -37.0804387941      -29.9201081384       -4.1896928618  MEMB      190             0.0000000000
     21987       190  SAPE      H17R          -36.4301143128      -30.8168907948       -4.1049593772  MEMB      190             0.0000000000
     21988       190  SAPE      H17S          -38.1216042956      -30.3014110968       -4.1196681809  MEMB      190             0.0000000000
     21989       190  SAPE      C218          -36.9262006628      -28.9943976804       -3.0332898406  MEMB      190             0.0000000000
     21990       190  SAPE      H18R          -37.8470105087      -28.3840353953       -2.9154432381  MEMB      190             0.0000000000
     21991       190  SAPE      H18S          -36.1444091561      -28.2332548991       -3.2425383167  MEMB      190             0.0000000000
     21992       190  SAPE      C219          -36.6691206822      -29.5555391646       -1.6839285202  MEMB      190             0.0000000000
     21993       190  SAPE      H19R          -36.5914319677      -28.6900279850       -0.9917028635  MEMB      190             0.0000000000
     21994       190  SAPE      H19S          -35.7053458322      -30.1075331737       -1.6563303315  MEMB      190             0.0000000000
     21995       190  SAPE      C220          -37.7439728766      -30.4879633759       -1.0002665337  MEMB      190             0.0000000000
     21996       190  SAPE      H20R          -37.4913544249      -30.7644142959        0.0457156454  MEMB      190             0.0000000000
     21997       190  SAPE      H20S          -37.8086251901      -31.4439292486       -1.5626457911  MEMB      190             0.0000000000
     21998       190  SAPE      H20T          -38.6768542537      -29.8890369624       -1.0733517473  MEMB      190             0.0000000000
     21999       190  SAPE      C33           -32.5713454425      -33.3967680000      -11.6028792956  MEMB      190             0.0000000000
     22000       190  SAPE      H3X           -31.4783752359      -33.5087238746      -11.4379461888  MEMB      190             0.0000000000
     22001       190  SAPE      H3Y           -33.0907915360      -34.2651793836      -11.1442313036  MEMB      190             0.0000000000
     22002       190  SAPE      C34           -33.0434105856      -32.3194366443      -10.6974740751  MEMB      190             0.0000000000
     22003       190  SAPE      H4X           -34.1492911922      -32.2375867762      -10.6292838115  MEMB      190             0.0000000000
     22004       190  SAPE      H4Y           -32.6798677255      -31.2953074648      -10.9283790370  MEMB      190             0.0000000000
     22005       190  SAPE      C35           -32.7149995433      -32.5229698800       -9.1926923976  MEMB      190             0.0000000000
     22006       190  SAPE      H5X           -31.6050157689      -32.5255481452       -9.1452551930  MEMB      190             0.0000000000
     22007       190  SAPE      H5Y           -33.2102747714      -33.4801118508       -8.9226880704  MEMB      190             0.0000000000
     22008       190  SAPE      C36           -33.2310375314      -31.2926023908       -8.4294056156  MEMB      190             0.0000000000
     22009       190  SAPE      H6X           -34.3374324452      -31.3759262199       -8.4865742245  MEMB      190             0.0000000000
     22010       190  SAPE      H6Y           -32.8409451483      -30.3361782160       -8.8385527864  MEMB      190             0.0000000000
     22011       190  SAPE      C37           -32.7021980470      -31.4589974266       -7.0301517317  MEMB      190             0.0000000000
     22012       190  SAPE      H7X           -31.5950549152      -31.3939513716       -6.9643944073  MEMB      190             0.0000000000
     22013       190  SAPE      H7Y           -32.7968212278      -32.5122051572       -6.6893859634  MEMB      190             0.0000000000
     22014       190  SAPE      C38           -33.3041147724      -30.5536131494       -5.9758817751  MEMB      190             0.0000000000
     22015       190  SAPE      H8X           -34.4028738601      -30.6249435543       -6.1240749523  MEMB      190             0.0000000000
     22016       190  SAPE      H8Y           -33.0251443834      -29.4872849535       -6.1153119376  MEMB      190             0.0000000000
     22017       190  SAPE      C39           -32.9756724538      -30.9861968820       -4.5492007154  MEMB      190             0.0000000000
     22018       190  SAPE      H9X           -33.0011248815      -32.0959448590       -4.5030179986  MEMB      190             0.0000000000
     22019       190  SAPE      H9Y           -33.7847703851      -30.5462171742       -3.9278311595  MEMB      190             0.0000000000
     22020       190  SAPE      C310          -31.6421524951      -30.4407852121       -3.9283049187  MEMB      190             0.0000000000
     22021       190  SAPE      H10X          -31.3285852655      -29.4197607867       -4.2340928127  MEMB      190             0.0000000000
     22022       190  SAPE      H10Y          -30.7902391831      -31.1107820129       -4.1725778305  MEMB      190             0.0000000000
     22023       190  SAPE      C311          -31.6358203903      -30.6424436903       -2.4431831139  MEMB      190             0.0000000000
     22024       190  SAPE      H11X          -32.2016833715      -31.5709746877       -2.2152573799  MEMB      190             0.0000000000
     22025       190  SAPE      H11Y          -32.2267621542      -29.7938622364       -2.0369582133  MEMB      190             0.0000000000
     22026       190  SAPE      C312          -30.2550793413      -30.8167959033       -1.9434024543  MEMB      190             0.0000000000
     22027       190  SAPE      H12X          -29.8170337699      -29.8705634882       -2.3269133401  MEMB      190             0.0000000000
     22028       190  SAPE      H12Y          -29.6932015626      -31.6284972121       -2.4530635392  MEMB      190             0.0000000000
     22029       190  SAPE      C313          -30.0656799315      -30.7952341673       -0.3603521638  MEMB      190             0.0000000000
     22030       190  SAPE      H13X          -30.4953197066      -29.8420169604        0.0152911188  MEMB      190             0.0000000000
     22031       190  SAPE      H13Y          -28.9770882770      -30.7652750934       -0.1403705413  MEMB      190             0.0000000000
     22032       190  SAPE      C314          -30.8173204545      -31.9170156705        0.3630609103  MEMB      190             0.0000000000
     22033       190  SAPE      H14X          -30.3653540333      -32.8723252905        0.0203788354  MEMB      190             0.0000000000
     22034       190  SAPE      H14Y          -31.8738315545      -31.9738817868        0.0241342047  MEMB      190             0.0000000000
     22035       190  SAPE      C315          -30.6549689535      -32.0265725644        1.8558172237  MEMB      190             0.0000000000
     22036       190  SAPE      H15X          -29.9858678645      -31.1721591821        2.0937292079  MEMB      190             0.0000000000
     22037       190  SAPE      H15Y          -30.0502704304      -32.8559870940        2.2809419595  MEMB      190             0.0000000000
     22038       190  SAPE      C316          -31.9731703556      -31.9186013348        2.6881420935  MEMB      190             0.0000000000
     22039       190  SAPE      H16X          -32.5874651709      -31.1661616842        2.1488854236  MEMB      190             0.0000000000
     22040       190  SAPE      H16Y          -31.6657035565      -31.3458409281        3.5891023254  MEMB      190             0.0000000000
     22041       190  SAPE      C317          -32.7875897926      -33.2596618242        2.8720678305  MEMB      190             0.0000000000
     22042       190  SAPE      H17X          -33.7918573409      -32.9637586824        3.2438328097  MEMB      190             0.0000000000
     22043       190  SAPE      H17Y          -32.3159930268      -33.8997593578        3.6480802768  MEMB      190             0.0000000000
     22044       190  SAPE      C318          -32.9851861642      -34.2770287289        1.7362442564  MEMB      190             0.0000000000
     22045       190  SAPE      H18X          -33.4552598944      -35.2026961440        2.1318345103  MEMB      190             0.0000000000
     22046       190  SAPE      H18Y          -32.0273985924      -34.5364778030        1.2365937604  MEMB      190             0.0000000000
     22047       190  SAPE      H18Z          -33.6874397065      -33.8568150166        0.9848582835  MEMB      190             0.0000000000
     22048       191  SAPE      N             -35.3349283783       26.3864312492      -21.8963544002  MEMB      191             0.0000000000
     22049       191  SAPE      HN1           -35.0181844875       26.1144230949      -22.8488694322  MEMB      191             0.0000000000
     22050       191  SAPE      HN2           -34.8430388598       27.2267381815      -21.5309381346  MEMB      191             0.0000000000
     22051       191  SAPE      HN3           -35.3940235499       25.5450133686      -21.2879764559  MEMB      191             0.0000000000
     22052       191  SAPE      C12           -36.7818600774       26.6886973879      -22.1120802615  MEMB      191             0.0000000000
     22053       191  SAPE      H12A          -37.2373071149       25.7268972112      -22.4311870927  MEMB      191             0.0000000000
     22054       191  SAPE      H12B          -36.7742383151       27.4326756855      -22.9371616992  MEMB      191             0.0000000000
     22055       191  SAPE      C11           -37.4991798943       27.0587117517      -20.8348005308  MEMB      191             0.0000000000
     22056       191  SAPE      H11A          -37.3534104516       26.2534440254      -20.0833910887  MEMB      191             0.0000000000
     22057       191  SAPE      H11B          -38.5818038710       27.0590882717      -21.0842924895  MEMB      191             0.0000000000
     22058       191  SAPE      P             -36.3778352121       28.6624106234      -19.0380421433  MEMB      191             0.0000000000
     22059       191  SAPE      O13           -34.9123358661       28.4637213019      -19.2261586348  MEMB      191             0.0000000000
     22060       191  SAPE      O14           -36.7364551276       30.0281889749      -18.5635115509  MEMB      191             0.0000000000
     22061       191  SAPE      O12           -37.2128365346       28.3879262964      -20.3527903526  MEMB      191             0.0000000000
     22062       191  SAPE      O11           -36.9263577134       27.6259588038      -17.9762621173  MEMB      191             0.0000000000
     22063       191  SAPE      C1            -38.3201403768       27.6249424656      -17.7310342335  MEMB      191             0.0000000000
     22064       191  SAPE      HA            -38.9869578724       27.8017026003      -18.6019137829  MEMB      191             0.0000000000
     22065       191  SAPE      HB            -38.4717318748       26.5674351673      -17.4260439249  MEMB      191             0.0000000000
     22066       191  SAPE      C2            -38.6875060024       28.5326283088      -16.5745857201  MEMB      191             0.0000000000
     22067       191  SAPE      HS            -38.7743527926       29.5454361029      -17.0229148085  MEMB      191             0.0000000000
     22068       191  SAPE      O21           -37.6138641946       28.5185253850      -15.6340630269  MEMB      191             0.0000000000
     22069       191  SAPE      C21           -37.4835608240       29.6792870835      -14.8677729484  MEMB      191             0.0000000000
     22070       191  SAPE      O22           -38.2998490730       30.5030142665      -14.8450515436  MEMB      191             0.0000000000
     22071       191  SAPE      C22           -36.2058416784       29.7226108986      -14.1050162799  MEMB      191             0.0000000000
     22072       191  SAPE      H2R           -35.6917758922       28.7501013183      -14.2608446313  MEMB      191             0.0000000000
     22073       191  SAPE      H2S           -35.5242315416       30.5584676743      -14.3716099340  MEMB      191             0.0000000000
     22074       191  SAPE      C3            -40.0718845416       28.1491078514      -15.9668707637  MEMB      191             0.0000000000
     22075       191  SAPE      HX            -40.8290581748       28.0965457117      -16.7781947079  MEMB      191             0.0000000000
     22076       191  SAPE      HY            -40.2758167862       28.9592854682      -15.2345149154  MEMB      191             0.0000000000
     22077       191  SAPE      O31           -39.8284168568       26.8664837091      -15.3387263349  MEMB      191             0.0000000000
     22078       191  SAPE      C31           -39.8342513353       26.9588254032      -14.0797170262  MEMB      191             0.0000000000
     22079       191  SAPE      O32           -40.0228427503       27.9382298426      -13.4252694157  MEMB      191             0.0000000000
     22080       191  SAPE      C32           -39.5499628473       25.5353297924      -13.5251032529  MEMB      191             0.0000000000
     22081       191  SAPE      H2X           -38.4489276542       25.4163416583      -13.6138977304  MEMB      191             0.0000000000
     22082       191  SAPE      H2Y           -39.9542302952       24.7015333552      -14.1380240972  MEMB      191             0.0000000000
     22083       191  SAPE      C23           -36.4995468194       29.7845337290      -12.5334744828  MEMB      191             0.0000000000
     22084       191  SAPE      H3R           -37.3103787853       30.5023164072      -12.2851591343  MEMB      191             0.0000000000
     22085       191  SAPE      H3S           -35.5710655464       30.2918161055      -12.1944936316  MEMB      191             0.0000000000
     22086       191  SAPE      C24           -36.7345235475       28.4186581815      -11.9255721705  MEMB      191             0.0000000000
     22087       191  SAPE      H4R           -35.7270416985       27.9522563299      -11.8834948614  MEMB      191             0.0000000000
     22088       191  SAPE      H4S           -37.4073122594       27.7635849404      -12.5193361227  MEMB      191             0.0000000000
     22089       191  SAPE      C25           -37.1993969123       28.6721913258      -10.4911001625  MEMB      191             0.0000000000
     22090       191  SAPE      H5R           -38.2992961482       28.6868535876      -10.4885360457  MEMB      191             0.0000000000
     22091       191  SAPE      C26           -36.4559217972       28.9944682413       -9.4536791763  MEMB      191             0.0000000000
     22092       191  SAPE      H6R           -36.9202509495       29.3339252436       -8.5160400112  MEMB      191             0.0000000000
     22093       191  SAPE      C27           -34.9990876191       29.1972428473       -9.3815296004  MEMB      191             0.0000000000
     22094       191  SAPE      H7R           -34.6010493131       29.9980280562       -8.7222648775  MEMB      191             0.0000000000
     22095       191  SAPE      H7S           -34.5701947354       29.5547763512      -10.3420198173  MEMB      191             0.0000000000
     22096       191  SAPE      C28           -34.4723311439       27.8188043497       -9.1314814280  MEMB      191             0.0000000000
     22097       191  SAPE      H8R           -33.9822869701       27.2940373052       -9.9648338350  MEMB      191             0.0000000000
     22098       191  SAPE      C29           -34.4199879660       27.2828956110       -7.8841172587  MEMB      191             0.0000000000
     22099       191  SAPE      H9R           -34.0428135488       26.2525940951       -7.8052603906  MEMB      191             0.0000000000
     22100       191  SAPE      C210          -34.8418687713       27.9166859629       -6.5807765918  MEMB      191             0.0000000000
     22101       191  SAPE      H10R          -35.5303146331       27.2315651359       -6.0413573042  MEMB      191             0.0000000000
     22102       191  SAPE      H10S          -35.4488764520       28.8246674140       -6.7843260892  MEMB      191             0.0000000000
     22103       191  SAPE      C211          -33.6917579996       28.2406652579       -5.7276490579  MEMB      191             0.0000000000
     22104       191  SAPE      H11R          -33.6212596608       29.3373570468       -5.7755773826  MEMB      191             0.0000000000
     22105       191  SAPE      C212          -32.9229468051       27.3800874998       -5.0013761758  MEMB      191             0.0000000000
     22106       191  SAPE      H12R          -32.0690826189       27.8337979038       -4.4769122338  MEMB      191             0.0000000000
     22107       191  SAPE      C213          -33.1963791137       25.8340641110       -4.8886687777  MEMB      191             0.0000000000
     22108       191  SAPE      H13R          -32.4014777397       25.2997745723       -5.4516850140  MEMB      191             0.0000000000
     22109       191  SAPE      H13S          -34.1827256495       25.6131672579       -5.3498036814  MEMB      191             0.0000000000
     22110       191  SAPE      C214          -33.1501671567       25.4767938912       -3.3519939495  MEMB      191             0.0000000000
     22111       191  SAPE      H14R          -32.1978497332       25.5736235092       -2.8100396626  MEMB      191             0.0000000000
     22112       191  SAPE      C215          -34.2390976026       25.2637795591       -2.5758716312  MEMB      191             0.0000000000
     22113       191  SAPE      H15R          -34.0700684175       24.8622787820       -1.5658085738  MEMB      191             0.0000000000
     22114       191  SAPE      C216          -35.6774290018       25.3377964562       -3.0473137863  MEMB      191             0.0000000000
     22115       191  SAPE      H16R          -36.2312843082       24.4275583193       -2.7326194727  MEMB      191             0.0000000000
     22116       191  SAPE      H16S          -35.9061077914       25.2011089491       -4.1258964752  MEMB      191             0.0000000000
     22117       191  SAPE      C217          -36.3430589671       26.5675627769       -2.4473574274  MEMB      191             0.0000000000
     22118       191  SAPE      H17R          -37.1415408345       26.7453479977       -3.1991150937  MEMB      191             0.0000000000
     22119       191  SAPE      H17S          -35.7370544613       27.4986478355       -2.4347046750  MEMB      191             0.0000000000
     22120       191  SAPE      C218          -36.8637764846       26.3020952533       -1.0089076238  MEMB      191             0.0000000000
     22121       191  SAPE      H18R          -35.9645921425       26.1233598703       -0.3813390374  MEMB      191             0.0000000000
     22122       191  SAPE      H18S          -37.2907270805       25.2790795369       -0.9349273444  MEMB      191             0.0000000000
     22123       191  SAPE      C219          -37.8425865379       27.3624129233       -0.4517286490  MEMB      191             0.0000000000
     22124       191  SAPE      H19R          -38.3213635854       27.9124638420       -1.2899043306  MEMB      191             0.0000000000
     22125       191  SAPE      H19S          -37.2365886728       28.1159706145        0.0952984793  MEMB      191             0.0000000000
     22126       191  SAPE      C220          -38.7901103023       26.7389123731        0.6075840304  MEMB      191             0.0000000000
     22127       191  SAPE      H20R          -39.4754101484       27.4091719894        1.1692209293  MEMB      191             0.0000000000
     22128       191  SAPE      H20S          -38.1304042145       26.2993508436        1.3859748564  MEMB      191             0.0000000000
     22129       191  SAPE      H20T          -39.2492628431       25.8588019251        0.1086794828  MEMB      191             0.0000000000
     22130       191  SAPE      C33           -40.0742143619       25.4821612165      -12.0566356801  MEMB      191             0.0000000000
     22131       191  SAPE      H3X           -41.1746404668       25.6332929461      -12.0333396407  MEMB      191             0.0000000000
     22132       191  SAPE      H3Y           -39.6492467371       26.2951796970      -11.4299588833  MEMB      191             0.0000000000
     22133       191  SAPE      C34           -39.8266974214       24.1567953243      -11.3143383537  MEMB      191             0.0000000000
     22134       191  SAPE      H4X           -40.2120896131       23.3429145873      -11.9650239054  MEMB      191             0.0000000000
     22135       191  SAPE      H4Y           -40.3721010897       24.2422315181      -10.3502028689  MEMB      191             0.0000000000
     22136       191  SAPE      C35           -38.3272991897       23.8741384369      -11.1663224058  MEMB      191             0.0000000000
     22137       191  SAPE      H5X           -37.7218322962       23.8830707357      -12.0978004762  MEMB      191             0.0000000000
     22138       191  SAPE      H5Y           -38.1982226779       22.8430340093      -10.7732785244  MEMB      191             0.0000000000
     22139       191  SAPE      C36           -37.4846223107       24.6432197014      -10.1541636877  MEMB      191             0.0000000000
     22140       191  SAPE      H6X           -37.5585339490       25.7195565631      -10.4194124613  MEMB      191             0.0000000000
     22141       191  SAPE      H6Y           -36.4097604177       24.4240737595      -10.3301406844  MEMB      191             0.0000000000
     22142       191  SAPE      C37           -37.9587990617       24.5148439096       -8.6059706648  MEMB      191             0.0000000000
     22143       191  SAPE      H7X           -37.7280933925       23.4850019501       -8.2588097332  MEMB      191             0.0000000000
     22144       191  SAPE      H7Y           -39.0380502284       24.7689112875       -8.5353475520  MEMB      191             0.0000000000
     22145       191  SAPE      C38           -37.2706445633       25.4234053126       -7.5955786792  MEMB      191             0.0000000000
     22146       191  SAPE      H8X           -36.8013654896       26.3159263107       -8.0619522723  MEMB      191             0.0000000000
     22147       191  SAPE      H8Y           -36.2939743910       25.0230596340       -7.2489379640  MEMB      191             0.0000000000
     22148       191  SAPE      C39           -38.2121737861       25.7875137702       -6.4251195938  MEMB      191             0.0000000000
     22149       191  SAPE      H9X           -37.5870379353       26.0859079372       -5.5565066595  MEMB      191             0.0000000000
     22150       191  SAPE      H9Y           -38.6545396580       24.8365191280       -6.0587277532  MEMB      191             0.0000000000
     22151       191  SAPE      C310          -39.4194519945       26.6275997047       -6.7030760456  MEMB      191             0.0000000000
     22152       191  SAPE      H10X          -39.9397702982       26.3738090071       -7.6513268178  MEMB      191             0.0000000000
     22153       191  SAPE      H10Y          -38.9909691763       27.6281877810       -6.9256678985  MEMB      191             0.0000000000
     22154       191  SAPE      C311          -40.3265838674       26.7895597312       -5.4467819924  MEMB      191             0.0000000000
     22155       191  SAPE      H11X          -39.9721556087       26.1388287295       -4.6189829177  MEMB      191             0.0000000000
     22156       191  SAPE      H11Y          -41.3056858426       26.3368280130       -5.7127037103  MEMB      191             0.0000000000
     22157       191  SAPE      C312          -40.4068616624       28.2246902869       -4.8262635055  MEMB      191             0.0000000000
     22158       191  SAPE      H12X          -41.0317261880       28.1497725090       -3.9107029438  MEMB      191             0.0000000000
     22159       191  SAPE      H12Y          -40.8537380472       28.7982885043       -5.6662679863  MEMB      191             0.0000000000
     22160       191  SAPE      C313          -39.0464822767       28.9066535752       -4.5455069482  MEMB      191             0.0000000000
     22161       191  SAPE      H13X          -38.2507376134       28.8260113381       -5.3166152829  MEMB      191             0.0000000000
     22162       191  SAPE      H13Y          -38.6066734812       28.4311364375       -3.6428598131  MEMB      191             0.0000000000
     22163       191  SAPE      C314          -39.1935320888       30.4717735860       -4.2668280294  MEMB      191             0.0000000000
     22164       191  SAPE      H14X          -39.9988903237       30.4711950957       -3.5015048008  MEMB      191             0.0000000000
     22165       191  SAPE      H14Y          -39.5502922222       30.8819159766       -5.2357592633  MEMB      191             0.0000000000
     22166       191  SAPE      C315          -37.9006359891       31.2080775857       -3.9082569044  MEMB      191             0.0000000000
     22167       191  SAPE      H15X          -38.1358083977       32.2894986198       -3.8105649567  MEMB      191             0.0000000000
     22168       191  SAPE      H15Y          -37.1568068472       30.9676972743       -4.6977222823  MEMB      191             0.0000000000
     22169       191  SAPE      C316          -37.3429932819       30.6583902865       -2.5533183329  MEMB      191             0.0000000000
     22170       191  SAPE      H16X          -37.3666784191       29.5483284676       -2.5142968143  MEMB      191             0.0000000000
     22171       191  SAPE      H16Y          -38.0581196565       31.0126112254       -1.7803741447  MEMB      191             0.0000000000
     22172       191  SAPE      C317          -35.9108674434       31.1355660649       -2.3061411571  MEMB      191             0.0000000000
     22173       191  SAPE      H17X          -35.9684296523       32.2376549762       -2.4342321616  MEMB      191             0.0000000000
     22174       191  SAPE      H17Y          -35.2940084738       30.7878265875       -3.1622271984  MEMB      191             0.0000000000
     22175       191  SAPE      C318          -35.2711283680       30.8090258449       -0.9643980247  MEMB      191             0.0000000000
     22176       191  SAPE      H18X          -35.0657648586       29.7176078174       -0.9335217760  MEMB      191             0.0000000000
     22177       191  SAPE      H18Y          -36.0179119222       31.0543761004       -0.1792619927  MEMB      191             0.0000000000
     22178       191  SAPE      H18Z          -34.3290276582       31.3695807753       -0.7839927900  MEMB      191             0.0000000000
     22179       192  CHL1      C3            -36.2987306011       36.3572919008      -17.2803850000  MEMB      192             0.0000000000
     22180       192  CHL1      H3            -37.2469689585       35.7899202546      -17.1652350000  MEMB      192             0.0000000000
     22181       192  CHL1      O3            -36.0025617989       36.2385778992      -18.7196150000  MEMB      192             0.0000000000
     22182       192  CHL1      H3'           -36.2368660179       35.3345551907      -18.9419750000  MEMB      192             0.0000000000
     22183       192  CHL1      C4            -36.3814113998       37.8272950470      -16.8716150000  MEMB      192             0.0000000000
     22184       192  CHL1      H4A           -35.4952634960       38.3285556044      -17.3163650000  MEMB      192             0.0000000000
     22185       192  CHL1      H4B           -37.1966386111       38.3794810871      -17.3862050000  MEMB      192             0.0000000000
     22186       192  CHL1      C5            -36.3947375663       38.0066872056      -15.3552850000  MEMB      192             0.0000000000
     22187       192  CHL1      C6            -37.3714572038       38.7334786307      -14.7906650000  MEMB      192             0.0000000000
     22188       192  CHL1      H6            -38.0690293020       39.3072743943      -15.4184750000  MEMB      192             0.0000000000
     22189       192  CHL1      C7            -37.3181386109       39.0660193661      -13.3047150000  MEMB      192             0.0000000000
     22190       192  CHL1      H7A           -37.4565218465       40.1670524276      -13.2509350000  MEMB      192             0.0000000000
     22191       192  CHL1      H7B           -38.1865281592       38.4910920480      -12.9178150000  MEMB      192             0.0000000000
     22192       192  CHL1      C8            -36.0560387872       38.5669377962      -12.5730250000  MEMB      192             0.0000000000
     22193       192  CHL1      H8            -35.3116559462       39.3726564519      -12.7491550000  MEMB      192             0.0000000000
     22194       192  CHL1      C14           -36.2479445258       38.5682399042      -11.0592450000  MEMB      192             0.0000000000
     22195       192  CHL1      H14           -37.0776894953       37.8653997099      -10.8315250000  MEMB      192             0.0000000000
     22196       192  CHL1      C15           -36.7161151775       39.9625602486      -10.5466850000  MEMB      192             0.0000000000
     22197       192  CHL1      H15A          -36.2685731303       40.7782201785      -11.1539150000  MEMB      192             0.0000000000
     22198       192  CHL1      H15B          -37.8175583311       40.0272510851      -10.6768850000  MEMB      192             0.0000000000
     22199       192  CHL1      C16           -36.2640102948       39.9105695033       -9.0864950000  MEMB      192             0.0000000000
     22200       192  CHL1      H16A          -35.4606966700       40.6637647174       -8.9391750000  MEMB      192             0.0000000000
     22201       192  CHL1      H16B          -37.1267397734       40.0694756662       -8.4047550000  MEMB      192             0.0000000000
     22202       192  CHL1      C17           -35.5020583360       38.5157079932       -8.8011250000  MEMB      192             0.0000000000
     22203       192  CHL1      H17           -36.2970907002       37.8119543256       -8.4740750000  MEMB      192             0.0000000000
     22204       192  CHL1      C13           -35.0230688059       38.1884687488      -10.2223350000  MEMB      192             0.0000000000
     22205       192  CHL1      C18           -33.7828047600       39.1273776661      -10.4618050000  MEMB      192             0.0000000000
     22206       192  CHL1      H18A          -32.9717408344       39.0567215401       -9.7058250000  MEMB      192             0.0000000000
     22207       192  CHL1      H18B          -33.3272533346       38.8777894323      -11.4438950000  MEMB      192             0.0000000000
     22208       192  CHL1      H18C          -34.0951041793       40.1860564041      -10.5882850000  MEMB      192             0.0000000000
     22209       192  CHL1      C12           -34.4606394505       36.7674502815      -10.7459550000  MEMB      192             0.0000000000
     22210       192  CHL1      H12A          -33.4983903167       36.6092919350      -10.2136250000  MEMB      192             0.0000000000
     22211       192  CHL1      H12B          -35.0932877677       35.8837444716      -10.5154550000  MEMB      192             0.0000000000
     22212       192  CHL1      C11           -34.2024973563       36.7883321454      -12.2360550000  MEMB      192             0.0000000000
     22213       192  CHL1      H11A          -33.3011848787       37.3683738471      -12.5284450000  MEMB      192             0.0000000000
     22214       192  CHL1      H11B          -33.9094159815       35.7540209610      -12.5164950000  MEMB      192             0.0000000000
     22215       192  CHL1      C9            -35.4256928661       37.2734571986      -13.0729950000  MEMB      192             0.0000000000
     22216       192  CHL1      H9            -36.1935903096       36.4923131939      -12.8873150000  MEMB      192             0.0000000000
     22217       192  CHL1      C10           -35.2781500854       37.2064825113      -14.6286450000  MEMB      192             0.0000000000
     22218       192  CHL1      C19           -33.9389437554       37.8233693609      -14.9882850000  MEMB      192             0.0000000000
     22219       192  CHL1      H19A          -33.8230281271       37.9311042670      -16.0879550000  MEMB      192             0.0000000000
     22220       192  CHL1      H19B          -33.8792019569       38.8036635933      -14.4688950000  MEMB      192             0.0000000000
     22221       192  CHL1      H19C          -32.9838753934       37.4024930946      -14.6074850000  MEMB      192             0.0000000000
     22222       192  CHL1      C1            -35.2669132802       35.7238294642      -15.0954450000  MEMB      192             0.0000000000
     22223       192  CHL1      H1A           -34.4876094974       35.1821481698      -14.5178650000  MEMB      192             0.0000000000
     22224       192  CHL1      H1B           -36.2233573375       35.2699137701      -14.7585350000  MEMB      192             0.0000000000
     22225       192  CHL1      C2            -35.2287817196       35.5774894526      -16.5846550000  MEMB      192             0.0000000000
     22226       192  CHL1      H2A           -35.2571994412       34.5002795414      -16.8550850000  MEMB      192             0.0000000000
     22227       192  CHL1      H2B           -34.2153044038       35.8902942759      -16.9153150000  MEMB      192             0.0000000000
     22228       192  CHL1      C20           -34.5180896819       38.6098887617       -7.6033950000  MEMB      192             0.0000000000
     22229       192  CHL1      H20           -33.6159939619       39.2034112992       -7.8646850000  MEMB      192             0.0000000000
     22230       192  CHL1      C21           -34.2080521504       37.2250556303       -7.0534650000  MEMB      192             0.0000000000
     22231       192  CHL1      H21A          -33.9094738114       36.4882335505       -7.8295250000  MEMB      192             0.0000000000
     22232       192  CHL1      H21B          -35.0805407377       36.8281862601       -6.4916950000  MEMB      192             0.0000000000
     22233       192  CHL1      H21C          -33.3038994110       37.3021236470       -6.4124550000  MEMB      192             0.0000000000
     22234       192  CHL1      C22           -35.2474950192       39.4209131816       -6.4976050000  MEMB      192             0.0000000000
     22235       192  CHL1      H22A          -35.3866745191       40.4994891983       -6.7248450000  MEMB      192             0.0000000000
     22236       192  CHL1      H22B          -36.2336731047       38.9684292942       -6.2587750000  MEMB      192             0.0000000000
     22237       192  CHL1      C23           -34.3147549876       39.5586104382       -5.2677650000  MEMB      192             0.0000000000
     22238       192  CHL1      H23A          -34.0396407529       38.6054076545       -4.7677450000  MEMB      192             0.0000000000
     22239       192  CHL1      H23B          -33.2743549147       39.8523550898       -5.5238950000  MEMB      192             0.0000000000
     22240       192  CHL1      C24           -34.9343742249       40.3914436600       -4.1340950000  MEMB      192             0.0000000000
     22241       192  CHL1      H24A          -35.2941006791       41.3555528650       -4.5529250000  MEMB      192             0.0000000000
     22242       192  CHL1      H24B          -35.8050946545       39.7754720501       -3.8230550000  MEMB      192             0.0000000000
     22243       192  CHL1      C25           -33.9102641207       40.7123219405       -2.9441950000  MEMB      192             0.0000000000
     22244       192  CHL1      H25           -33.3393514307       39.7761899620       -2.7652250000  MEMB      192             0.0000000000
     22245       192  CHL1      C26           -32.8213115376       41.7630928209       -3.1531050000  MEMB      192             0.0000000000
     22246       192  CHL1      H26A          -32.2449605138       41.7535185971       -4.1028650000  MEMB      192             0.0000000000
     22247       192  CHL1      H26B          -33.1836226205       42.8121224133       -3.1022050000  MEMB      192             0.0000000000
     22248       192  CHL1      H26C          -32.0830341501       41.7257505718       -2.3237250000  MEMB      192             0.0000000000
     22249       192  CHL1      C27           -34.7802228653       41.0907872859       -1.7023250000  MEMB      192             0.0000000000
     22250       192  CHL1      H27A          -35.5189446466       40.2637089765       -1.6348250000  MEMB      192             0.0000000000
     22251       192  CHL1      H27B          -34.2206274520       41.2065499582       -0.7495550000  MEMB      192             0.0000000000
     22252       192  CHL1      H27C          -35.2408193769       42.0543795721       -2.0083650000  MEMB      192             0.0000000000
